/*--------------------------------*- C++ -*----------------------------------*\
| =========                 |                                                 |
| \\      /  F ield         | OpenFOAM: The Open Source CFD Toolbox           |
|  \\    /   O peration     | Version:  v2012                                 |
|   \\  /    A nd           | Website:  www.openfoam.com                      |
|    \\/     M anipulation  |                                                 |
\*---------------------------------------------------------------------------*/
FoamFile
{
    version     2.0;
    format      ascii;
    class       volScalarField;
    location    "10.7";
    object      p;
}
// * * * * * * * * * * * * * * * * * * * * * * * * * * * * * * * * * * * * * //

dimensions      [0 2 -2 0 0 0 0];


internalField   nonuniform List<scalar> 
9600
(
2.41394e-12
0.00322269
0.00715269
0.00143574
-0.00205172
0.00402001
0.00476316
0.00490749
0.0081955
0.00854354
0.00847218
0.0101906
0.0105508
0.0125451
0.0125689
0.0135268
0.0138111
0.0163345
0.0186446
0.0231398
2.84031e-06
0.00322354
0.00714232
0.00144772
-0.00203539
0.00400733
0.004749
0.00489755
0.00819621
0.0085565
0.00848168
0.0101876
0.0105476
0.0125342
0.0125769
0.0135125
0.0138551
0.0162951
0.0186694
0.022693
6.88203e-06
0.00323105
0.00712983
0.00146561
-0.00201641
0.00398791
0.00472527
0.00490285
0.00820192
0.0085858
0.00849614
0.0101709
0.0105491
0.0125138
0.012589
0.0134926
0.0138889
0.0162476
0.0186621
0.0222043
1.49072e-05
0.00325417
0.00710497
0.00149282
-0.0019798
0.0039713
0.00470285
0.00493459
0.00820795
0.00862918
0.00851873
0.0101453
0.010557
0.012485
0.0126022
0.0134668
0.0139201
0.0161936
0.0186244
0.0217402
3.12121e-05
0.00328868
0.00706027
0.00152941
-0.00191662
0.00395855
0.00468404
0.00498676
0.00821614
0.0086847
0.00854942
0.0101155
0.0105696
0.0124517
0.0126161
0.0134351
0.0139512
0.0161324
0.0185622
0.0213028
5.80354e-05
0.00332647
0.00699418
0.00157564
-0.00182277
0.00395021
0.00466897
0.00505435
0.00823114
0.00874879
0.008587
0.0100852
0.0105862
0.0124182
0.012631
0.0134026
0.0139811
0.0160637
0.0184781
0.0208845
9.54328e-05
0.00336218
0.00690315
0.00163071
-0.00170127
0.00394672
0.00465869
0.00513378
0.00825603
0.0088177
0.00862998
0.0100561
0.0106066
0.0123863
0.0126464
0.0133684
0.0140076
0.0159899
0.0183724
0.0204809
0.000141834
0.00339387
0.00681033
0.00169337
-0.00155874
0.00394759
0.00465227
0.00522049
0.00829042
0.00888757
0.00867645
0.0100287
0.0106303
0.0123566
0.0126619
0.0133328
0.014029
0.0159135
0.0182448
0.020091
0.000194935
0.00342196
0.00671598
0.00176267
-0.00140158
0.00395087
0.00464634
0.00530936
0.00833082
0.00895453
0.00872401
0.0100025
0.0106567
0.0123294
0.012677
0.0132964
0.0140442
0.0158354
0.0180961
0.0197153
0.000252633
0.00344788
0.00662445
0.00183836
-0.001234
0.00395001
0.00463794
0.00539585
0.00837226
0.00901507
0.00877032
0.0099773
0.010685
0.0123045
0.0126909
0.0132601
0.0140522
0.0157584
0.0179293
0.0193548
0.000313561
0.00347315
0.00653735
0.00192
-0.00105777
0.00394521
0.00462655
0.0054768
0.00841022
0.00906652
0.00881362
0.00995293
0.0107141
0.0122822
0.012703
0.0132248
0.0140524
0.0156817
0.0177493
0.0190102
0.000377107
0.00349879
0.00645456
0.00200641
-0.000873591
0.00393832
0.00461405
0.0055509
0.00844207
0.00910745
0.00885287
0.00992951
0.0107431
0.0122626
0.0127128
0.0131908
0.0140448
0.0156056
0.0175608
0.0186809
0.000443129
0.00352526
0.00637482
0.00209598
-0.000682057
0.0039319
0.00460333
0.00561845
0.00846624
0.00913779
0.00888773
0.00990745
0.010771
0.0122457
0.0127197
0.0131581
0.0140296
0.0155293
0.0173671
0.0183658
0.00051164
0.00355253
0.00629691
0.00218736
-0.000484056
0.00392821
0.00459687
0.00568094
0.00848528
0.00915863
0.00891841
0.00988726
0.0107972
0.0122315
0.0127236
0.0131263
0.0140066
0.015451
0.017171
0.0180638
0.000582637
0.00358044
0.00622018
0.00227988
-0.000280792
0.00392839
0.00459588
0.00573993
0.00850135
0.00917169
0.00894526
0.00986949
0.0108211
0.0122198
0.0127242
0.0130942
0.013976
0.0153686
0.0169734
0.0177734
0.000656084
0.0036088
0.00614453
0.00237326
-7.33991e-05
0.00393269
0.00460016
0.00579633
0.00851638
0.00917909
0.0089685
0.00985458
0.0108424
0.0122106
0.0127214
0.0130605
0.0139384
0.0152808
0.0167746
0.0174926
0.000731946
0.00363763
0.00607018
0.00246733
0.000137092
0.00394082
0.00460873
0.00585054
0.00853221
0.00918295
0.00898829
0.00984282
0.0108609
0.0122033
0.0127153
0.0130237
0.0138941
0.0151871
0.0165739
0.0172192
0.000810214
0.00366697
0.00599752
0.00256199
0.00034979
0.00395228
0.00462072
0.00590286
0.00855007
0.00918505
0.00900453
0.00983442
0.0108768
0.0121971
0.0127068
0.0129829
0.013843
0.0150878
0.0163705
0.0169511
0.000890904
0.00369679
0.005927
0.00265718
0.000564128
0.00396691
0.00463557
0.00595347
0.00857052
0.00918682
0.00901701
0.00982929
0.0108904
0.0121908
0.0126964
0.0129374
0.0137844
0.0149838
0.0161641
0.0166866
0.000974064
0.00372703
0.00585913
0.00275286
0.000779679
0.00398485
0.00465292
0.00600247
0.00859364
0.00918948
0.00902558
0.00982704
0.0109024
0.0121836
0.0126847
0.012887
0.0137181
0.0148764
0.0159557
0.0164247
0.00105977
0.00375764
0.00579441
0.00284902
0.000995973
0.00400642
0.00467257
0.00605002
0.00861927
0.00919404
0.00903035
0.00982698
0.0109134
0.0121745
0.0126717
0.0128318
0.0136434
0.0147661
0.0157465
0.016165
0.00114812
0.00378852
0.00573333
0.00294573
0.00121248
0.00403193
0.00469447
0.00609636
0.00864709
0.00920125
0.00903159
0.00982835
0.0109241
0.0121631
0.012657
0.0127725
0.0135593
0.0146533
0.0155377
0.0159068
0.00123926
0.00381957
0.00567632
0.00304318
0.00142868
0.00406167
0.00471867
0.00614179
0.00867661
0.00921146
0.00902972
0.00983049
0.0109354
0.0121486
0.0126401
0.0127097
0.0134651
0.0145385
0.0153314
0.0156476
0.00133332
0.00385067
0.00562379
0.00314159
0.00164405
0.00409585
0.00474521
0.00618657
0.00870728
0.00922486
0.0090253
0.00983267
0.0109476
0.0121308
0.0126199
0.0126443
0.0133605
0.0144205
0.0151311
0.0153847
0.00143047
0.00388173
0.005576
0.0032412
0.00185813
0.00413472
0.00477409
0.00623086
0.00873822
0.00924164
0.00901885
0.00983401
0.0109609
0.0121095
0.0125958
0.0125773
0.0132454
0.0142996
0.0149415
0.0151193
0.00153088
0.00391272
0.00553309
0.00334221
0.00207044
0.00417855
0.00480545
0.00627468
0.00876986
0.00926189
0.0090109
0.00983368
0.0109755
0.0120848
0.0125666
0.0125103
0.0131202
0.0141711
0.0147651
0.0148592
0.00163471
0.00394358
0.00549518
0.00344493
0.00228043
0.00422753
0.00483949
0.00631797
0.00880327
0.00928576
0.0090021
0.00983096
0.0109915
0.0120571
0.0125306
0.0124442
0.0129878
0.0140305
0.0145993
0.0146138
0.00174214
0.00397427
0.00546232
0.00354978
0.00248766
0.00428165
0.00487645
0.00636083
0.00883717
0.00931327
0.00899296
0.00982508
0.0110087
0.0120277
0.0124865
0.0123784
0.0128528
0.0138764
0.0144371
0.0143863
0.00185332
0.0040049
0.00543438
0.00365711
0.00269197
0.00434086
0.00491668
0.00640339
0.00887101
0.00934441
0.00898399
0.00981504
0.0110266
0.0119981
0.0124337
0.0123117
0.0127182
0.0137124
0.0142723
0.0141744
0.00196837
0.00403573
0.00541112
0.0037671
0.0028934
0.00440504
0.00496055
0.00644569
0.00890423
0.00937922
0.00897598
0.00980003
0.011044
0.0119692
0.0123727
0.0122433
0.0125848
0.0135411
0.0141048
0.0139744
0.00208739
0.00406703
0.00539236
0.00387992
0.00309211
0.00447385
0.00500828
0.00648798
0.00893632
0.00941748
0.0089698
0.0097798
0.0110597
0.0119417
0.0123041
0.0121721
0.0124529
0.0133638
0.013936
0.0137859
0.00221039
0.00409916
0.00537792
0.00399564
0.00328828
0.00454695
0.00506012
0.00653095
0.00896679
0.00945862
0.0089663
0.00975425
0.0110724
0.0119159
0.0122284
0.0120972
0.0123254
0.0131816
0.0137638
0.01361
0.00233742
0.00413256
0.00536757
0.00411419
0.00348222
0.0046241
0.00511602
0.00657509
0.00899531
0.00950184
0.00896628
0.00972348
0.0110803
0.0118925
0.0121464
0.012017
0.0122051
0.0129984
0.0135841
0.0134443
0.00246846
0.00416779
0.00536093
0.00423533
0.00367457
0.00470494
0.00517549
0.00662089
0.00902223
0.00954642
0.00896988
0.00968781
0.0110823
0.0118716
0.0120595
0.0119294
0.0120923
0.0128206
0.0133962
0.0132827
0.00260342
0.00420537
0.00535665
0.00435864
0.00386587
0.00478949
0.00523812
0.00666863
0.00904807
0.00959188
0.00897669
0.00964726
0.0110774
0.0118532
0.0119692
0.0118331
0.0119848
0.0126523
0.0132041
0.0131194
0.00274226
0.00424573
0.00535183
0.00448362
0.00405626
0.00487818
0.00530349
0.00671828
0.00907314
0.00963808
0.00898632
0.00960165
0.011065
0.0118377
0.0118778
0.011728
0.0118802
0.0124959
0.0130131
0.0129505
0.00288505
0.00428937
0.0053556
0.00460981
0.00424565
0.00497163
0.00537118
0.00676932
0.00909784
0.00968501
0.00899871
0.0095507
0.0110438
0.0118249
0.0117877
0.0116135
0.0117764
0.0123529
0.0128285
0.0127748
0.00303172
0.00433658
0.0053647
0.00473696
0.00443373
0.00507069
0.00544097
0.0068206
0.00912223
0.00973351
0.00901442
0.00949392
0.0110116
0.0118148
0.0117022
0.0114894
0.0116697
0.012224
0.0126569
0.0125948
0.00318229
0.00438733
0.00538009
0.00486517
0.00461983
0.00517656
0.0055131
0.0068705
0.00914573
0.00978466
0.00903444
0.00943084
0.0109661
0.0118065
0.0116253
0.0113569
0.0115549
0.0121075
0.012506
0.0124196
0.00333688
0.00444159
0.00540179
0.00499495
0.00480294
0.00528957
0.00558851
0.00691844
0.00916748
0.00983823
0.00906048
0.00936243
0.010904
0.0117972
0.0115616
0.0112201
0.0114267
0.0119978
0.0123794
0.0122637
0.0034955
0.00449947
0.00542953
0.00512719
0.00498183
0.00540919
0.00566901
0.00696432
0.00918582
0.00989314
0.00909512
0.00929139
0.0108227
0.0117824
0.0115144
0.0110856
0.0112827
0.0118855
0.012273
0.0121387
0.00365819
0.00456113
0.00546313
0.00526296
0.00515611
0.00553438
0.00575678
0.00700808
0.00919817
0.00994825
0.00914044
0.00922126
0.010721
0.0117559
0.0114846
0.0109615
0.0111237
0.0117631
0.0121789
0.0120467
0.00382497
0.00462728
0.00550144
0.00540341
0.00532695
0.00566254
0.00585348
0.00705088
0.0092022
0.0100016
0.00919725
0.00915635
0.0105997
0.0117119
0.0114707
0.0108567
0.0109529
0.0116255
0.0120908
0.0119816
0.00399577
0.00469886
0.00554276
0.00554902
0.00549654
0.00579049
0.00595903
0.00709538
0.00919685
0.0100498
0.00926511
0.00910197
0.0104618
0.0116454
0.0114683
0.0107791
0.0107773
0.0114666
0.0120041
0.0119364
0.00417033
0.00477706
0.00558548
0.00569924
0.0056678
0.0059162
0.00607233
0.0071447
0.00918193
0.0100883
0.00934251
0.00906338
0.0103133
0.0115546
0.0114691
0.0107319
0.0106099
0.0112817
0.0119099
0.0119078
0.00434823
0.00486332
0.00562868
0.00585253
0.00584421
0.00603869
0.00619107
0.0072015
0.00915841
0.0101126
0.00942614
0.00904434
0.010162
0.0114407
0.0114652
0.0107127
0.0104651
0.0110744
0.0117935
0.0118913
0.00452886
0.00495916
0.00567236
0.00600596
0.00602893
0.00615889
0.0063104
0.00726715
0.00913095
0.0101208
0.00951032
0.00904602
0.0100163
0.0113074
0.0114512
0.0107147
0.0103512
0.0108605
0.0116423
0.0118753
0.00471155
0.00506577
0.00571724
0.00615546
0.00622373
0.00627997
0.00642362
0.0073406
0.00910753
0.0101146
0.00958828
0.00906668
0.00988352
0.0111589
0.0114231
0.0107303
0.0102683
0.010656
0.011456
0.0118417
0.00489559
0.00518398
0.00576502
0.00629685
0.00642782
0.00640638
0.00652656
0.0074194
0.00909499
0.0100979
0.00965541
0.0091022
0.00976816
0.0110005
0.0113785
0.010755
0.0102149
0.0104728
0.0112447
0.0117732
0.00508023
0.00531445
0.00581815
0.00642642
0.00663817
0.00654453
0.00661958
0.00749573
0.00909484
0.0100799
0.00971159
0.00914611
0.00967151
0.0108382
0.0113155
0.0107841
0.0101899
0.0103187
0.0110222
0.0116612
0.00526457
0.00545758
0.00588005
0.00654124
0.00685001
0.00670037
0.00670498
0.00756058
0.00910521
0.0100704
0.00976039
0.00919298
0.00959256
0.0106777
0.0112353
0.0108104
0.0101883
0.0101712
0.0108024
0.011509
0.00544781
0.00561268
0.00595467
0.0066406
0.00705777
0.0068773
0.00678798
0.00760705
0.0091186
0.0100733
0.00980991
0.00924263
0.00952812
0.0105217
0.0111415
0.0108307
0.0102086
0.010087
0.010603
0.0113293
0.00562978
0.00577922
0.00604454
0.00672438
0.00725323
0.00707549
0.00688136
0.00763541
0.00912261
0.0100875
0.0098686
0.0092979
0.00947606
0.0103703
0.0110349
0.0108431
0.0102449
0.0100339
0.0104324
0.0111379
0.00581003
0.00595623
0.00615381
0.00679598
0.00742619
0.00728796
0.00699598
0.00764886
0.00910667
0.0101097
0.0099445
0.0093653
0.00943858
0.0102252
0.010915
0.0108448
0.0102934
0.0100092
0.0102954
0.0109509
0.00598944
0.00613967
0.00628229
0.00686216
0.00757482
0.00750943
0.0071379
0.00765371
0.0090609
0.0101282
0.0100397
0.00945191
0.0094187
0.0100901
0.0107838
0.0108316
0.0103507
0.0100121
0.0101928
0.0107807
0.00616772
0.00632914
0.00642955
0.00692679
0.00769558
0.00773192
0.00731439
0.00766801
0.00898706
0.010124
0.0101483
0.00956262
0.00941878
0.0099672
0.0106443
0.0107985
0.01041
0.0100418
0.010124
0.0106347
0.00634637
0.00651514
0.00659613
0.00699505
0.00778487
0.00793874
0.0075212
0.00771506
0.00889754
0.0100865
0.0102569
0.00970028
0.00944723
0.00986146
0.0105013
0.0107446
0.0104616
0.0100945
0.0100876
0.0105169
0.00652996
0.00671424
0.00677921
0.00706995
0.00783372
0.00811493
0.00775143
0.00780632
0.0088145
0.0100139
0.0103464
0.00986017
0.00951273
0.00978232
0.0103597
0.0106711
0.010498
0.0101619
0.0100909
0.0104327
0.00671469
0.00689558
0.00697291
0.00716399
0.007868
0.00826034
0.00799464
0.00794297
0.00875611
0.00991119
0.0103964
0.0100261
0.00961483
0.00973928
0.0102275
0.0105799
0.0105147
0.0102324
0.0101243
0.0103857
0.00690161
0.00708354
0.00716653
0.00727876
0.00789867
0.00837411
0.00822948
0.00811407
0.00873241
0.00979215
0.0104015
0.010181
0.00974864
0.00973878
0.0101177
0.0104772
0.0105093
0.0102977
0.0101786
0.0103754
0.0070887
0.00726152
0.00736193
0.00742066
0.00793645
0.00845415
0.00843638
0.00830561
0.00875253
0.00968524
0.0103683
0.0103109
0.00990565
0.00978238
0.0100431
0.0103744
0.0104814
0.0103513
0.0102458
0.0104113
0.00727308
0.00743295
0.00755449
0.00758342
0.00799334
0.00851342
0.0086153
0.00850843
0.00881694
0.00960341
0.0103043
0.0103994
0.0100679
0.00986466
0.0100076
0.0102854
0.010436
0.010388
0.0103136
0.010453
0.00745588
0.00759187
0.0077426
0.00776374
0.00806801
0.00856053
0.00876613
0.0087106
0.00891762
0.00955683
0.0102306
0.0104483
0.0102206
0.0099802
0.0100137
0.0102217
0.0103849
0.0104072
0.0103773
0.0105075
0.00764464
0.00776912
0.0079136
0.00793134
0.00815658
0.00860482
0.0088907
0.00890328
0.00904661
0.00955131
0.0101672
0.0104661
0.0103487
0.010116
0.0100623
0.0101915
0.0103405
0.0104107
0.0104336
0.0105708
0.00783069
0.00793402
0.00807537
0.008098
0.00826291
0.00865673
0.00899523
0.00908036
0.00919424
0.00958637
0.0101246
0.0104645
0.0104484
0.0102541
0.0101474
0.0102003
0.010315
0.0104064
0.010479
0.0106374
0.00800994
0.0080958
0.0082299
0.00826599
0.00839026
0.00872194
0.00908082
0.00923271
0.00934531
0.00965386
0.0101107
0.0104596
0.0105264
0.0103855
0.0102566
0.0102482
0.0103193
0.0104078
0.0105141
0.0107023
0.00818264
0.00825043
0.00838131
0.00842987
0.0085246
0.00879672
0.00915539
0.00936466
0.00949734
0.00974948
0.0101307
0.0104642
0.0105894
0.0105085
0.0103782
0.0103273
0.0103578
0.0104295
0.0105482
0.0107618
0.0083507
0.00840957
0.00852467
0.00857826
0.00865799
0.00888203
0.00922758
0.00947916
0.00964397
0.00986446
0.0101827
0.0104906
0.0106497
0.0106256
0.0105112
0.0104308
0.0104281
0.0104793
0.0105935
0.0108201
0.00850896
0.00855973
0.00866244
0.00871898
0.0087927
0.00898105
0.00930358
0.00957968
0.00977839
0.00998784
0.0102584
0.0105399
0.0107195
0.0107425
0.0106588
0.0105639
0.0105311
0.0105611
0.010661
0.0108862
0.0086544
0.00869603
0.00879517
0.00885378
0.00892504
0.0090864
0.00938252
0.00967104
0.00990465
0.0101205
0.0103581
0.0106112
0.0108007
0.0108594
0.0108137
0.0107266
0.0106711
0.0106808
0.0107634
0.0109759
0.00879259
0.00883418
0.00891763
0.00897181
0.00904683
0.00919503
0.00946606
0.00975269
0.0100146
0.0102541
0.010485
0.0107208
0.0109129
0.0109959
0.0109829
0.0109183
0.0108505
0.0108369
0.0108992
0.0110873
0.00891567
0.00895729
0.00903221
0.00907744
0.00915358
0.00930294
0.00956271
0.00984272
0.0101114
0.0103639
0.0106075
0.0108549
0.0110662
0.0111831
0.0112024
0.0111698
0.0111118
0.01108
0.0111228
0.0112864
0.0090189
0.00906289
0.00914053
0.00917989
0.00925029
0.00939457
0.00964969
0.00993633
0.0102151
0.0104647
0.0107046
0.0109597
0.0112017
0.0113681
0.0114339
0.0114415
0.011417
0.0113856
0.0114078
0.0115466
0.00911154
0.00915857
0.00924126
0.00927477
0.00935001
0.00948575
0.00972192
0.010007
0.0103219
0.0106348
0.010927
0.0112065
0.011469
0.0116736
0.0117878
0.0118496
0.0118731
0.0118448
0.0118121
0.0118437
0.00916219
0.00921026
0.00928096
0.00933646
0.00944377
0.00960247
0.00980603
0.00998842
0.0101869
0.0104517
0.0108428
0.0112829
0.0116573
0.011947
0.0121657
0.012367
0.0126306
0.0129589
0.0133152
0.0136351
0.00926349
0.00929349
0.00937116
0.00938425
0.00948295
0.00970083
0.00998665
0.0102679
0.0105683
0.0108657
0.0111653
0.011485
0.0117857
0.0120763
0.0123634
0.0126351
0.012904
0.0131723
0.0134136
0.0135753
0.00916346
0.00919804
0.00937998
0.00956583
0.00974717
0.00992421
0.0101441
0.0103792
0.0106077
0.0108468
0.0111179
0.0114297
0.0117575
0.0120793
0.0124305
0.0128062
0.0132386
0.0137004
0.014109
0.0143644
0.00937933
0.00944793
0.0095895
0.00968787
0.00981533
0.00998479
0.0102157
0.0104758
0.0107568
0.011084
0.0114234
0.0117539
0.0120769
0.0123414
0.0125438
0.0126482
0.0126126
0.0124785
0.012307
0.0121975
0.0092332
0.00928025
0.00952873
0.00977346
0.00998215
0.0101515
0.0103491
0.0105813
0.0108156
0.011063
0.0113508
0.011652
0.0119962
0.0123428
0.0126819
0.0130503
0.0134515
0.0138544
0.0141951
0.0144061
0.0093658
0.0094311
0.00970867
0.00993945
0.0101253
0.0102647
0.0104354
0.0106518
0.0108867
0.0111596
0.0115046
0.0118507
0.0121924
0.01254
0.0128682
0.0131848
0.0134639
0.013689
0.0138483
0.0139008
0.02666
0.0210061
0.0125811
0.00649827
0.00529171
0.00687392
0.00864492
0.00981507
0.0105137
0.0109819
0.0113674
0.011798
0.0123274
0.012815
0.0131243
0.0133772
0.0137337
0.0141305
0.01444
0.0146711
0.01495
0.0153628
0.0158196
0.0161697
0.0164281
0.0167633
0.0172398
0.0177153
0.0180664
0.018398
0.0188424
0.0193104
0.0197055
0.0200885
0.0205048
0.0209254
0.0213731
0.0218878
0.0224294
0.0229481
0.0234669
0.0240024
0.0245271
0.0250217
0.0254748
0.0259253
0.0264151
0.0269476
0.0274778
0.0280178
0.0286028
0.0292224
0.0298145
0.0303851
0.0310126
0.0316742
0.0323233
0.0329789
0.0336425
0.0342651
0.0348811
0.0355189
0.0362225
0.036974
0.03774
0.0385205
0.0393183
0.0400686
0.0408211
0.0415958
0.0423842
0.0432087
0.0440674
0.0449277
0.0457771
0.0466556
0.0475489
0.0484916
0.0494357
0.0504148
0.0513874
0.0523887
0.0534293
0.0544861
0.0555654
0.056658
0.057789
0.0589475
0.060114
0.0613052
0.062452
0.0636723
0.064906
0.0661573
0.0674198
0.0686599
0.0698882
0.0710274
0.0720867
0.0730325
0.0258734
0.0208322
0.0126625
0.00664623
0.0053813
0.00691658
0.00867081
0.0098329
0.0105271
0.0109926
0.0113759
0.011805
0.0123336
0.0128209
0.0131295
0.0133816
0.0137375
0.0141341
0.0144434
0.014674
0.0149524
0.015365
0.0158219
0.0161718
0.0164299
0.0167648
0.0172412
0.0177167
0.0180677
0.018399
0.0188433
0.0193114
0.0197065
0.0200893
0.0205056
0.0209261
0.0213738
0.0218885
0.0224301
0.0229487
0.0234675
0.024003
0.0245278
0.0250223
0.0254754
0.0259259
0.0264157
0.0269481
0.0274783
0.0280183
0.0286032
0.0292229
0.029815
0.0303855
0.0310129
0.0316746
0.0323236
0.0329793
0.0336429
0.0342654
0.0348814
0.0355192
0.0362228
0.0369743
0.0377403
0.0385207
0.0393185
0.0400688
0.0408213
0.041596
0.0423844
0.0432089
0.0440675
0.0449279
0.0457773
0.0466558
0.047549
0.0484918
0.0494359
0.050415
0.0513876
0.0523888
0.0534294
0.0544862
0.0555655
0.0566581
0.0577892
0.0589476
0.0601141
0.0613053
0.0624521
0.0636724
0.0649061
0.0661574
0.0674199
0.06866
0.0698882
0.0710275
0.0720867
0.0730324
0.0251251
0.0206541
0.0128356
0.00692223
0.00553732
0.00697503
0.00869895
0.00985282
0.0105427
0.0110056
0.0113867
0.0118134
0.0123402
0.0128266
0.0131347
0.0133862
0.0137415
0.0141377
0.0144465
0.0146768
0.0149547
0.0153671
0.015824
0.0161738
0.0164315
0.0167662
0.0172425
0.0177181
0.0180689
0.0183999
0.0188442
0.0193124
0.0197073
0.0200901
0.0205064
0.0209268
0.0213744
0.0218891
0.0224307
0.0229493
0.0234681
0.0240036
0.0245283
0.0250229
0.0254759
0.0259264
0.0264161
0.0269486
0.0274788
0.0280187
0.0286036
0.0292233
0.0298154
0.0303859
0.0310133
0.0316749
0.0323239
0.0329796
0.0336432
0.0342657
0.0348817
0.0355194
0.036223
0.0369745
0.0377405
0.0385209
0.0393187
0.0400691
0.0408215
0.0415962
0.0423845
0.043209
0.0440677
0.044928
0.0457774
0.0466559
0.0475491
0.0484919
0.049436
0.0504151
0.0513877
0.052389
0.0534295
0.0544863
0.0555656
0.0566582
0.0577893
0.0589477
0.0601142
0.0613054
0.0624522
0.0636725
0.0649061
0.0661575
0.06742
0.06866
0.0698883
0.0710275
0.0720867
0.0730325
0.0244146
0.0204727
0.0130592
0.00727552
0.00575481
0.00706021
0.00874102
0.00988263
0.0105655
0.0110244
0.0114031
0.0118261
0.0123486
0.0128326
0.0131406
0.0133925
0.0137473
0.0141422
0.0144504
0.0146804
0.0149581
0.0153698
0.0158263
0.0161761
0.0164337
0.0167682
0.0172443
0.0177197
0.0180703
0.0184011
0.0188453
0.0193135
0.0197082
0.0200909
0.0205072
0.0209275
0.0213749
0.0218896
0.0224313
0.0229499
0.0234687
0.0240041
0.0245289
0.0250234
0.0254765
0.0259268
0.0264166
0.026949
0.0274792
0.0280191
0.028604
0.0292237
0.0298158
0.0303862
0.0310136
0.0316752
0.0323243
0.0329799
0.0336435
0.0342661
0.0348819
0.0355197
0.0362232
0.0369747
0.0377407
0.0385211
0.039319
0.0400693
0.0408216
0.0415964
0.0423847
0.0432092
0.0440678
0.0449282
0.0457776
0.046656
0.0475493
0.048492
0.0494361
0.0504152
0.0513878
0.0523891
0.0534296
0.0544864
0.0555657
0.0566583
0.0577893
0.0589478
0.0601143
0.0613055
0.0624523
0.0636725
0.0649062
0.0661576
0.0674201
0.0686601
0.0698884
0.0710276
0.0720869
0.0730325
0.0237091
0.0202652
0.0132925
0.00765583
0.00600078
0.00716029
0.00879112
0.00992004
0.0105955
0.0110501
0.0114264
0.011845
0.0123603
0.0128392
0.0131473
0.013401
0.0137554
0.0141482
0.0144554
0.014686
0.0149636
0.0153739
0.0158289
0.0161787
0.0164371
0.0167716
0.017247
0.0177218
0.0180723
0.018403
0.0188471
0.0193149
0.0197093
0.0200919
0.0205081
0.0209282
0.0213755
0.0218902
0.022432
0.0229506
0.0234693
0.0240048
0.0245296
0.0250241
0.025477
0.0259273
0.026417
0.0269495
0.0274797
0.0280195
0.0286044
0.0292242
0.0298162
0.0303866
0.0310139
0.0316756
0.0323246
0.0329803
0.0336439
0.0342664
0.0348822
0.0355199
0.0362234
0.036975
0.037741
0.0385213
0.0393193
0.0400696
0.0408219
0.0415965
0.0423849
0.0432093
0.044068
0.0449284
0.0457777
0.0466562
0.0475494
0.0484922
0.0494363
0.0504153
0.051388
0.0523892
0.0534298
0.0544865
0.0555659
0.0566584
0.0577894
0.0589479
0.0601144
0.0613056
0.0624524
0.0636726
0.0649063
0.0661577
0.0674202
0.0686602
0.0698886
0.0710278
0.0720871
0.0730327
0.0230022
0.0200226
0.0135188
0.00804673
0.00626397
0.00726881
0.00884345
0.00996037
0.0106299
0.0110807
0.0114552
0.0118689
0.012375
0.0128467
0.0131548
0.0134116
0.0137656
0.0141553
0.0144614
0.0146938
0.0149721
0.0153798
0.0158319
0.0161815
0.0164417
0.0167768
0.0172507
0.0177243
0.018075
0.0184061
0.0188497
0.0193168
0.0197109
0.0200934
0.0205094
0.0209292
0.0213763
0.0218909
0.0224326
0.0229513
0.0234701
0.0240057
0.0245303
0.0250247
0.0254777
0.025928
0.0264176
0.0269499
0.0274802
0.02802
0.028605
0.0292246
0.0298167
0.030387
0.0310144
0.031676
0.032325
0.0329807
0.0336444
0.0342668
0.0348825
0.0355202
0.0362237
0.0369753
0.0377413
0.0385216
0.0393196
0.0400699
0.0408221
0.0415968
0.0423851
0.0432095
0.0440682
0.0449286
0.0457779
0.0466563
0.0475495
0.0484923
0.0494364
0.0504155
0.0513881
0.0523893
0.0534299
0.0544866
0.055566
0.0566585
0.0577896
0.058948
0.0601145
0.0613057
0.0624525
0.0636727
0.0649064
0.0661578
0.0674203
0.0686604
0.0698887
0.071028
0.0720875
0.0730329
0.0222995
0.0197462
0.013733
0.00844489
0.00654396
0.00738616
0.00889716
0.0100021
0.0106674
0.011115
0.0114877
0.0118961
0.0123917
0.012855
0.013163
0.0134234
0.013777
0.014163
0.0144682
0.0147035
0.0149833
0.0153879
0.0158357
0.0161849
0.0164478
0.0167836
0.0172554
0.0177272
0.0180785
0.0184105
0.0188534
0.0193194
0.0197132
0.0200957
0.0205113
0.0209306
0.0213773
0.0218915
0.0224332
0.0229519
0.023471
0.0240066
0.0245311
0.0250254
0.0254784
0.0259288
0.0264182
0.0269504
0.0274807
0.0280207
0.0286055
0.0292251
0.0298173
0.0303876
0.0310149
0.0316765
0.0323255
0.0329812
0.0336449
0.0342672
0.0348829
0.0355204
0.0362239
0.0369757
0.0377417
0.038522
0.03932
0.0400702
0.0408224
0.041597
0.0423853
0.0432098
0.0440684
0.0449288
0.0457781
0.0466565
0.0475497
0.0484925
0.0494366
0.0504156
0.0513882
0.0523894
0.05343
0.0544868
0.0555661
0.0566586
0.0577897
0.0589481
0.0601146
0.0613059
0.0624526
0.0636728
0.0649066
0.0661579
0.0674205
0.0686605
0.069889
0.0710284
0.0720881
0.0730332
0.0216111
0.0194405
0.013931
0.00884769
0.00684161
0.00751469
0.00895315
0.0100451
0.0107077
0.0111527
0.0115232
0.0119257
0.01241
0.0128642
0.013172
0.0134362
0.013789
0.0141707
0.0144751
0.0147144
0.0149966
0.0153978
0.0158405
0.0161891
0.0164552
0.016792
0.0172607
0.0177302
0.0180825
0.0184159
0.018858
0.0193226
0.0197163
0.0200989
0.0205141
0.0209326
0.0213787
0.0218924
0.0224336
0.0229525
0.0234718
0.0240076
0.0245319
0.0250262
0.0254794
0.0259299
0.0264191
0.026951
0.0274813
0.0280214
0.0286062
0.0292257
0.0298178
0.0303882
0.0310155
0.0316769
0.0323259
0.0329818
0.0336455
0.0342677
0.0348832
0.0355207
0.0362243
0.036976
0.037742
0.0385224
0.0393204
0.0400707
0.0408228
0.0415973
0.0423856
0.0432101
0.0440687
0.0449291
0.0457784
0.0466568
0.0475499
0.0484927
0.0494368
0.0504158
0.0513884
0.0523895
0.0534302
0.0544869
0.0555662
0.0566587
0.0577898
0.0589483
0.0601148
0.061306
0.0624527
0.0636729
0.0649067
0.066158
0.0674207
0.0686607
0.0698893
0.071029
0.0720889
0.0730336
0.0209473
0.0191107
0.0141077
0.00925102
0.00715655
0.00765631
0.00901227
0.0100888
0.0107503
0.0111933
0.0115615
0.0119574
0.0124299
0.0128744
0.0131817
0.0134496
0.0138016
0.0141787
0.0144821
0.0147258
0.015011
0.0154089
0.0158461
0.0161942
0.0164637
0.0168015
0.0172666
0.0177332
0.0180869
0.0184222
0.0188633
0.0193262
0.0197198
0.020103
0.0205178
0.0209355
0.0213808
0.0218936
0.0224342
0.0229529
0.0234725
0.0240084
0.0245326
0.0250269
0.0254806
0.0259315
0.0264204
0.0269518
0.0274821
0.0280224
0.0286071
0.0292262
0.0298184
0.0303889
0.031016
0.0316773
0.0323264
0.0329825
0.0336462
0.0342683
0.0348837
0.0355211
0.0362246
0.0369764
0.0377424
0.0385228
0.0393209
0.0400712
0.0408232
0.0415977
0.042386
0.0432105
0.0440691
0.0449294
0.0457787
0.046657
0.0475501
0.0484929
0.049437
0.050416
0.0513886
0.0523897
0.0534303
0.054487
0.0555664
0.0566589
0.0577899
0.0589484
0.0601149
0.0613062
0.0624528
0.0636731
0.0649069
0.0661582
0.0674209
0.068661
0.0698896
0.0710298
0.0720901
0.0730342
0.020317
0.0187631
0.0142593
0.00965015
0.00748685
0.00781185
0.00907489
0.0101322
0.0107941
0.0112367
0.0116025
0.0119916
0.0124515
0.0128855
0.0131919
0.0134637
0.0138148
0.014187
0.0144892
0.0147375
0.015026
0.0154206
0.0158524
0.0161999
0.0164732
0.0168118
0.0172729
0.0177363
0.0180915
0.0184289
0.0188689
0.0193299
0.0197236
0.0201076
0.0205221
0.0209392
0.0213837
0.0218954
0.022435
0.0229534
0.0234731
0.0240089
0.024533
0.0250274
0.0254819
0.0259335
0.0264221
0.0269528
0.0274831
0.0280237
0.0286081
0.0292267
0.029819
0.0303898
0.0310167
0.0316776
0.0323268
0.0329832
0.033647
0.034269
0.0348844
0.0355217
0.036225
0.0369768
0.0377428
0.0385231
0.0393214
0.0400718
0.0408237
0.0415982
0.0423865
0.043211
0.0440696
0.0449299
0.0457791
0.0466574
0.0475505
0.0484933
0.0494373
0.0504162
0.0513888
0.0523899
0.0534305
0.0544872
0.0555665
0.056659
0.0577901
0.0589486
0.0601151
0.0613063
0.062453
0.0636732
0.0649071
0.0661583
0.0674212
0.0686613
0.0698901
0.071031
0.0720917
0.0730349
0.0197266
0.0184053
0.0143843
0.0100404
0.00782889
0.00798105
0.00914099
0.0101743
0.0108381
0.0112824
0.0116464
0.0120281
0.0124745
0.0128974
0.0132027
0.0134785
0.0138289
0.0141958
0.0144966
0.0147495
0.0150415
0.015433
0.0158592
0.0162061
0.0164833
0.0168229
0.0172796
0.0177396
0.0180963
0.0184359
0.0188748
0.0193337
0.0197275
0.0201124
0.020527
0.0209435
0.0213872
0.0218977
0.0224361
0.022954
0.0234736
0.0240092
0.0245329
0.0250276
0.0254831
0.0259357
0.0264242
0.0269542
0.0274844
0.0280252
0.0286093
0.0292274
0.0298197
0.0303908
0.0310174
0.0316778
0.0323271
0.0329837
0.0336476
0.0342697
0.0348852
0.0355225
0.0362257
0.0369773
0.0377431
0.0385233
0.0393218
0.0400724
0.0408242
0.0415987
0.0423871
0.0432116
0.0440701
0.0449304
0.0457797
0.0466579
0.0475509
0.0484937
0.0494377
0.0504166
0.0513891
0.0523902
0.0534308
0.0544874
0.0555667
0.0566592
0.0577902
0.0589488
0.0601152
0.0613065
0.0624531
0.0636733
0.0649073
0.0661585
0.0674216
0.0686617
0.0698906
0.0710324
0.0720937
0.0730358
0.0191796
0.0180455
0.0144833
0.0104171
0.00817797
0.00816309
0.00921097
0.0102145
0.0108813
0.01133
0.0116931
0.0120669
0.012499
0.01291
0.0132141
0.0134941
0.0138438
0.0142053
0.0145045
0.0147619
0.0150575
0.0154458
0.0158661
0.0162125
0.0164938
0.0168345
0.0172868
0.017743
0.0181012
0.0184432
0.0188809
0.0193376
0.0197314
0.0201173
0.0205321
0.0209482
0.0213912
0.0219004
0.0224376
0.0229549
0.0234742
0.0240093
0.0245324
0.0250272
0.0254841
0.0259381
0.0264266
0.026956
0.0274861
0.0280271
0.0286108
0.0292281
0.0298205
0.0303921
0.0310183
0.031678
0.0323271
0.032984
0.033648
0.0342703
0.0348861
0.0355236
0.0362267
0.0369781
0.0377435
0.0385234
0.039322
0.0400728
0.0408247
0.0415991
0.0423877
0.0432123
0.0440707
0.0449309
0.0457803
0.0466586
0.0475515
0.0484943
0.0494382
0.050417
0.0513895
0.0523906
0.0534311
0.0544876
0.0555669
0.0566593
0.0577904
0.058949
0.0601154
0.0613067
0.0624533
0.0636735
0.0649075
0.0661587
0.067422
0.0686621
0.0698912
0.0710342
0.0720962
0.0730369
0.0186771
0.0176906
0.0145572
0.010776
0.00852966
0.00835758
0.00928603
0.0102529
0.0109227
0.0113787
0.0117423
0.0121077
0.0125246
0.0129232
0.013226
0.0135106
0.0138597
0.0142158
0.0145131
0.014775
0.0150743
0.0154592
0.0158734
0.016219
0.0165046
0.0168466
0.0172944
0.0177468
0.0181063
0.0184509
0.0188874
0.0193416
0.0197353
0.0201222
0.0205373
0.0209532
0.0213957
0.0219034
0.0224393
0.022956
0.023475
0.0240093
0.0245316
0.0250265
0.0254849
0.0259405