/*--------------------------------*- C++ -*----------------------------------*\
| =========                 |                                                 |
| \\      /  F ield         | OpenFOAM: The Open Source CFD Toolbox           |
|  \\    /   O peration     | Version:  v2012                                 |
|   \\  /    A nd           | Website:  www.openfoam.com                      |
|    \\/     M anipulation  |                                                 |
\*---------------------------------------------------------------------------*/
FoamFile
{
    version     2.0;
    format      ascii;
    class       surfaceScalarField;
    location    "10.7";
    object      phi;
}
// * * * * * * * * * * * * * * * * * * * * * * * * * * * * * * * * * * * * * //

dimensions      [0 3 -1 0 0 0 0];
oriented        oriented;


internalField   nonuniform List<scalar> 
19000
(
1.18815e-06
-5.30518e-07
1.13214e-06
1.35982e-06
1.0913e-06
-4.88316e-07
1.21941e-06
-1.92852e-06
1.29754e-06
-1.75042e-06
1.24232e-06
3.55282e-07
1.19386e-06
6.56765e-07
1.15301e-06
6.73132e-07
1.16925e-06
-3.33528e-07
1.19921e-06
-7.26039e-07
1.21773e-06
-1.03287e-06
1.21499e-06
-5.16823e-07
1.19951e-06
-4.43011e-07
1.20096e-06
-8.98168e-08
1.20595e-06
-8.37706e-08
1.20419e-06
3.22618e-08
1.21391e-06
1.45103e-08
1.20658e-06
6.04616e-08
1.20567e-06
6.42212e-08
7.10653e-08
1.17261e-06
1.24647e-06
-5.52723e-07
1.22552e-06
1.38076e-06
1.15328e-06
-4.16074e-07
1.24924e-06
-2.02448e-06
1.34876e-06
-1.84994e-06
1.31289e-06
3.91147e-07
1.2534e-06
7.16256e-07
1.24219e-06
6.84344e-07
1.24759e-06
-3.38922e-07
1.27284e-06
-7.51291e-07
1.28908e-06
-1.04911e-06
1.28716e-06
-5.14902e-07
1.26601e-06
-4.21859e-07
1.27197e-06
-9.57812e-08
1.26595e-06
-7.77472e-08
1.27778e-06
2.04289e-08
1.269e-06
2.32888e-08
1.28408e-06
4.53836e-08
1.25593e-06
9.23763e-08
6.40576e-08
1.26293e-06
1.30637e-06
-5.7631e-07
1.32326e-06
1.36387e-06
1.22008e-06
-3.1289e-07
1.28011e-06
-2.08451e-06
1.3949e-06
-1.96473e-06
1.38865e-06
3.97394e-07
1.32537e-06
7.79531e-07
1.33609e-06
6.73634e-07
1.32973e-06
-3.32562e-07
1.34509e-06
-7.66655e-07
1.35064e-06
-1.05466e-06
1.35653e-06
-5.20799e-07
1.33139e-06
-3.96719e-07
1.34032e-06
-1.04704e-07
1.33039e-06
-6.78239e-08
1.34436e-06
6.45958e-09
1.33624e-06
3.14077e-08
1.34688e-06
3.47503e-08
1.33177e-06
1.0748e-07
7.61384e-08
1.31969e-06
1.3663e-06
-5.98508e-07
1.41408e-06
1.31609e-06
1.28779e-06
-1.86599e-07
1.31426e-06
-2.11098e-06
1.43263e-06
-2.0831e-06
1.45947e-06
3.70554e-07
1.40857e-06
8.3043e-07
1.43026e-06
6.51947e-07
1.41414e-06
-3.16445e-07
1.41426e-06
-7.66769e-07
1.40649e-06
-1.0469e-06
1.41519e-06
-5.29499e-07
1.39502e-06
-3.76549e-07
1.40125e-06
-1.10932e-07
1.39715e-06
-6.37286e-08
1.40779e-06
-4.17875e-09
1.40702e-06
3.21785e-08
1.4132e-06
2.8572e-08
1.40701e-06
1.13672e-07
9.1274e-08
1.39187e-06
1.42614e-06
-6.16289e-07
1.49148e-06
1.25075e-06
1.35734e-06
-5.24571e-08
1.35465e-06
-2.1083e-06
1.46404e-06
-2.19248e-06
1.52149e-06
3.13102e-07
1.4999e-06
8.52017e-07
1.52494e-06
6.26906e-07
1.50154e-06
-2.93041e-07
1.4828e-06
-7.48036e-07
1.46165e-06
-1.02575e-06
1.46803e-06
-5.35875e-07
1.45662e-06
-3.65143e-07
1.46156e-06
-1.15872e-07
1.46339e-06
-6.55503e-08
1.47397e-06
-1.47607e-08
1.47777e-06
2.83776e-08
1.48435e-06
2.19861e-08
1.48231e-06
1.15717e-07
1.04315e-07
1.46927e-06
1.48738e-06
-6.27993e-07
1.55608e-06
1.18205e-06
1.4312e-06
7.24204e-08
1.40393e-06
-2.08103e-06
1.49515e-06
-2.2837e-06
1.57867e-06
2.29587e-07
1.59584e-06
8.3484e-07
1.62153e-06
6.0122e-07
1.59142e-06
-2.62936e-07
1.55424e-06
-7.10852e-07
1.51993e-06
-9.91438e-07
1.52145e-06
-5.37393e-07
1.51684e-06
-3.60532e-07
1.524e-06
-1.23034e-07
1.5296e-06
-7.11526e-08
1.54219e-06
-2.73465e-08
1.54911e-06
2.14517e-08
1.5572e-06
1.39026e-08
1.55894e-06
1.13972e-07
1.149e-07
1.54836e-06
1.55234e-06
-6.34116e-07
1.6145e-06
1.11988e-06
1.5117e-06
1.7522e-07
1.46443e-06
-2.03376e-06
1.5335e-06
-2.35277e-06
1.63804e-06
1.25049e-07
1.69247e-06
7.80405e-07
1.71871e-06
5.74978e-07
1.68135e-06
-2.25576e-07
1.62919e-06
-6.5869e-07
1.58281e-06
-9.45051e-07
1.57862e-06
-5.33207e-07
1.57745e-06
-3.5936e-07
1.58834e-06
-1.33926e-07
1.59686e-06
-7.96722e-08
1.6114e-06
-4.18828e-08
1.62093e-06
1.19234e-08
1.63013e-06
4.7027e-09
1.63556e-06
1.08538e-07
1.22815e-07
1.62765e-06
1.62266e-06
-6.36644e-07
1.67496e-06
1.06758e-06
1.59929e-06
2.50888e-07
1.53713e-06
-1.97159e-06
1.58429e-06
-2.39993e-06
1.70387e-06
5.46664e-09
1.78598e-06
6.98297e-07
1.81252e-06
5.4844e-07
1.76812e-06
-1.8118e-07
1.70607e-06
-5.9664e-07
1.6504e-06
-8.89381e-07
1.64067e-06
-5.23476e-07
1.64031e-06
-3.58997e-07
1.65432e-06
-1.47936e-07
1.66529e-06
-9.06484e-08
1.68109e-06
-5.76849e-08
1.69263e-06
3.91934e-10
1.70225e-06
-4.92632e-09
1.71077e-06
1.0002e-07
1.27917e-07
1.70567e-06
1.6984e-06
-6.37472e-07
1.74289e-06
1.02309e-06
1.69254e-06
3.01233e-07
1.62102e-06
-1.90006e-06
1.64864e-06
-2.42756e-06
1.77572e-06
-1.21613e-07
1.87304e-06
6.00985e-07
1.89866e-06
5.22819e-07
1.84918e-06
-1.31701e-07
1.78307e-06
-5.30536e-07
1.72239e-06
-8.28693e-07
1.70814e-06
-5.09234e-07
1.70682e-06
-3.57671e-07
1.72214e-06
-1.63262e-07
1.73462e-06
-1.0312e-07
1.75074e-06
-7.38094e-08
1.7636e-06
-1.24643e-08
1.77297e-06
-1.43045e-08
1.78368e-06
8.93106e-08
1.30266e-07
1.78133e-06
1.77856e-06
-6.37307e-07
1.81929e-06
9.82362e-07
1.78924e-06
3.31276e-07
1.71375e-06
-1.82457e-06
1.72447e-06
-2.43827e-06
1.85035e-06
-2.47494e-07
1.95125e-06
5.00084e-07
1.97461e-06
4.99459e-07
1.92354e-06
-8.06378e-08
1.85934e-06
-4.66335e-07
1.79844e-06
-7.67789e-07
1.78138e-06
-4.92178e-07
1.77804e-06
-3.54325e-07
1.79247e-06
-1.77693e-07
1.80492e-06
-1.15573e-07
1.82014e-06
-8.90244e-08
1.83351e-06
-2.58345e-08
1.84212e-06
-2.29126e-08
1.85405e-06
7.73805e-08
1.30082e-07
1.85423e-06
1.86224e-06
-6.35798e-07
1.90215e-06
9.4245e-07
1.88737e-06
3.4606e-07
1.81275e-06
-1.74996e-06
1.8085e-06
-2.43401e-06
1.92447e-06
-3.63467e-07
2.01986e-06
4.04695e-07
2.04055e-06
4.7877e-07
1.9922e-06
-3.22921e-08
1.93521e-06
-4.0934e-07
1.8784e-06
-7.10979e-07
1.86045e-06
-4.74233e-07
1.85475e-06
-3.48624e-07
1.86637e-06
-1.89311e-07
1.8772e-06
-1.26406e-07
1.89017e-06
-1.0199e-07
1.90304e-06
-3.87051e-08
1.91047e-06
-3.03446e-08
1.92266e-06
6.51923e-08
1.27719e-07
1.92502e-06
1.9494e-06
-6.32357e-07
1.98907e-06
9.02775e-07
1.98559e-06
3.49539e-07
1.9159e-06
-1.68026e-06
1.89801e-06
-2.41613e-06
1.99672e-06
-4.62174e-07
2.0806e-06
3.20814e-07
2.09958e-06
4.59797e-07
2.05809e-06
9.18863e-09
2.01205e-06
-3.63298e-07
1.96231e-06
-6.61236e-07
1.94518e-06
-4.57104e-07
1.9375e-06
-3.40948e-07
1.94526e-06
-1.97066e-07
1.95336e-06
-1.34512e-07
1.96301e-06
-1.11638e-07
1.9743e-06
-4.99903e-08
1.98015e-06
-3.61991e-08
1.99166e-06
5.3689e-08
1.23716e-07
1.99566e-06
2.04058e-06
-6.26751e-07
2.07904e-06
8.64316e-07
2.08378e-06
3.44801e-07
2.02174e-06
-1.61822e-06
1.99164e-06
-2.38604e-06
2.06858e-06
-5.39115e-07
2.13814e-06
2.51257e-07
2.15721e-06
4.40731e-07
2.1255e-06
4.0897e-08
2.0919e-06
-3.29697e-07
2.05043e-06
-6.19769e-07
2.03525e-06
-4.41926e-07
2.02654e-06
-3.32239e-07
2.03048e-06
-2.01e-07
2.03559e-06
-1.39624e-07
2.04148e-06
-1.17525e-07
2.05028e-06
-5.87923e-08
2.05418e-06
-4.00979e-08
2.06412e-06
4.3749e-08
1.18805e-07
2.06903e-06
2.13642e-06
-6.19174e-07
2.17256e-06
8.28184e-07
2.18296e-06
3.34402e-07
2.12956e-06
-1.56482e-06
2.08928e-06
-2.34576e-06
2.1439e-06
-5.93729e-07
2.1991e-06
1.96048e-07
2.21989e-06
4.19949e-07
2.19882e-06
6.19623e-08
2.17682e-06
-3.07694e-07
2.1432e-06
-5.86153e-07
2.13038e-06
-4.29102e-07
2.12178e-06
-3.23645e-07
2.1228e-06
-2.02018e-07
2.12544e-06
-1.42257e-07
2.12787e-06
-1.19959e-07
2.13372e-06
-6.46411e-08
2.13543e-06
-4.18081e-08
2.14311e-06
3.60672e-08
1.13793e-07
2.14812e-06
2.23734e-06
-6.10025e-07
2.27074e-06
7.9478e-07
2.28475e-06
3.20399e-07
2.23934e-06
-1.51942e-06
2.19145e-06
-2.29787e-06
2.22677e-06
-6.29049e-07
2.26958e-06
1.53242e-07
2.29277e-06
3.96759e-07
2.28123e-06
7.34949e-08
2.26836e-06
-2.94816e-07
2.24114e-06
-5.58937e-07
2.23042e-06
-4.18377e-07
2.22287e-06
-3.16097e-07
2.22221e-06
-2.01364e-07
2.22329e-06
-1.43329e-07
2.22313e-06
-1.19806e-07
2.22609e-06
-6.75965e-08
2.22565e-06
-4.13673e-08
2.23072e-06
3.09997e-08
1.09388e-07
2.23512e-06
2.34355e-06
-5.99695e-07
2.37453e-06
7.63794e-07
2.39062e-06
3.04308e-07
2.35164e-06
-1.48043e-06
2.29865e-06
-2.24489e-06
2.3196e-06
-6.49996e-07
2.35286e-06
1.19985e-07
2.37823e-06
3.7139e-07
2.374e-06
7.7724e-08
2.36725e-06
-2.88067e-07
2.34472e-06
-5.3641e-07
2.33544e-06
-4.09099e-07
2.3294e-06
-3.10055e-07
2.32814e-06
-2.00104e-07
2.32851e-06
-1.437e-07
2.32686e-06
-1.1815e-07
2.32738e-06
-6.81152e-08
2.32514e-06
-3.91273e-08
2.32765e-06
2.84834e-08
1.0605e-07
2.33099e-06
2.45518e-06
-5.88476e-07
2.48441e-06
7.34564e-07
2.50155e-06
2.87166e-07
2.46725e-06
-1.44613e-06
2.41115e-06
-2.18879e-06
2.4226e-06
-6.61448e-07
2.44913e-06
9.34554e-08
2.47601e-06
3.44511e-07
2.47678e-06
7.69596e-08
2.47355e-06
-2.84843e-07
2.4543e-06
-5.17155e-07
2.44574e-06
-4.00544e-07
2.44118e-06
-3.05489e-07
2.43996e-06
-1.98883e-07
2.44013e-06
-1.43872e-07
2.4379e-06
-1.15922e-07
2.43663e-06
-6.68499e-08
2.4331e-06
-3.55963e-08
2.43352e-06
2.80638e-08
1.03921e-07
2.43565e-06
2.57237e-06
-5.76556e-07
2.60055e-06
7.06388e-07
2.61806e-06
2.69659e-07
2.58698e-06
-1.41505e-06
2.52907e-06
-2.13089e-06
2.53475e-06
-6.67125e-07
2.55681e-06
7.13974e-08
2.58453e-06
3.16788e-07
2.58853e-06
7.29576e-08
2.58701e-06
-2.83319e-07
2.57008e-06
-5.00233e-07
2.56168e-06
-3.92139e-07
2.55824e-06
-3.02051e-07
2.5573e-06
-1.97942e-07
2.55737e-06
-1.43941e-07
2.55516e-06
-1.1371e-07
2.55273e-06
-6.44251e-08
2.54839e-06
-3.12528e-08
2.54738e-06
2.9072e-08
1.02857e-07
2.54844e-06
2.69532e-06
-5.64049e-07
2.72306e-06
6.78648e-07
2.74048e-06
2.52238e-07
2.71151e-06
-1.38608e-06
2.65252e-06
-2.07189e-06
2.6548e-06
-6.69402e-07
2.67398e-06
5.2212e-08
2.7021e-06
2.88674e-07
2.70827e-06
6.67889e-08
2.70734e-06
-2.82392e-07
2.6922e-06
-4.85094e-07
2.6836e-06
-3.8354e-07
2.68082e-06
-2.99267e-07
2.68015e-06
-1.97278e-07
2.67995e-06
-1.4374e-07
2.67798e-06
-1.11734e-07
2.67489e-06
-6.13405e-08
2.67004e-06
-2.63988e-08
2.66827e-06
3.08389e-08
1.02531e-07
2.6686e-06
2.82424e-06
-5.51019e-07
2.85206e-06
6.50824e-07
2.86911e-06
2.35193e-07
2.84142e-06
-1.35839e-06
2.78168e-06
-2.01216e-06
2.78189e-06
-6.69615e-07
2.7993e-06
3.48024e-08
2.82759e-06
2.60387e-07
2.83537e-06
5.90053e-08
2.83444e-06
-2.81456e-07
2.82073e-06
-4.71389e-07
2.8118e-06
-3.74609e-07
2.80919e-06
-2.96657e-07
2.80872e-06
-1.96811e-07
2.80802e-06
-1.43036e-07
2.80623e-06
-1.09945e-07
2.80283e-06
-5.79447e-08
2.79763e-06
-2.11975e-08
2.79559e-06
3.28857e-08
1.02546e-07
2.79557e-06
2.95937e-06
-5.3749e-07
2.98771e-06
6.22478e-07
3.00421e-06
2.187e-07
2.97716e-06
-1.33135e-06
2.91681e-06
-1.95181e-06
2.91565e-06
-6.68453e-07
2.93207e-06
1.83875e-08
2.96046e-06
2.31997e-07
2.96958e-06
4.98795e-08
2.96833e-06
-2.80202e-07
2.95577e-06
-4.58829e-07
2.94651e-06
-3.65351e-07
2.94366e-06
-2.93804e-07
2.94331e-06
-1.96466e-07
2.94196e-06
-1.4168e-07
2.94017e-06
-1.08161e-07
2.93674e-06
-5.45107e-08
2.93127e-06
-1.57329e-08
2.92917e-06
3.49872e-08
1.02515e-07
2.9292e-06
3.10097e-06
-5.23449e-07
3.1302e-06
5.93246e-07
3.14604e-06
2.02858e-07
3.11915e-06
-1.30446e-06
3.05829e-06
-1.89094e-06
3.0561e-06
-6.66265e-07
3.07209e-06
2.39682e-09
3.10056e-06
2.03525e-07
3.11085e-06
3.9593e-08
3.10913e-06
-2.78487e-07
3.09744e-06
-4.4714e-07
3.08796e-06
-3.55872e-07
3.08453e-06
-2.90375e-07
3.08427e-06
-1.96197e-07
3.08223e-06
-1.39643e-07
3.08026e-06
-1.06188e-07
3.07702e-06
-5.12734e-08
3.0714e-06
-1.01127e-08
3.06923e-06
3.71505e-08
1.02098e-07
3.06965e-06
3.24932e-06
-5.08861e-07
3.2797e-06
5.62872e-07
3.29484e-06
1.87712e-07
3.26774e-06
-1.27736e-06
3.20651e-06
-1.82971e-06
3.20349e-06
-6.63244e-07
3.21945e-06
-1.35644e-08
3.24794e-06
1.75033e-07
3.25921e-06
2.8324e-08
3.257e-06
-2.76269e-07
3.24593e-06
-4.36074e-07
3.2364e-06
-3.4634e-07
3.23219e-06
-2.86164e-07
3.23195e-06
-1.95959e-07
3.22931e-06
-1.37009e-07
3.22699e-06
-1.03867e-07
3.22412e-06
-4.8405e-08
3.21854e-06
-4.52972e-09
3.21618e-06
3.95153e-08
1.01072e-07
3.2172e-06
3.40475e-06
-4.93677e-07
3.43639e-06
5.31227e-07
3.45085e-06
1.7325e-07
3.42326e-06
-1.24977e-06
3.3619e-06
-1.76835e-06
3.35816e-06
-6.59507e-07
3.37433e-06
-2.97316e-08
3.40273e-06
1.46634e-07
3.41479e-06
1.62692e-08
3.41211e-06
-2.73589e-07
3.40147e-06
-4.25439e-07
3.39208e-06
-3.36945e-07
3.387e-06
-2.81084e-07
3.38673e-06
-1.95691e-07
3.38366e-06
-1.33936e-07
3.38087e-06
-1.01082e-07
3.37843e-06
-4.59621e-08
3.37318e-06
7.15692e-10
3.37046e-06
4.22392e-08
9.94275e-08
3.3721e-06
3.56759e-06
-4.77856e-07
3.6005e-06
4.98318e-07
3.61435e-06
1.59396e-07
3.58605e-06
-1.22146e-06
3.52483e-06
-1.70713e-06
3.52045e-06
-6.55128e-07
3.53693e-06
-4.62138e-08
3.56511e-06
1.18456e-07
3.57776e-06
3.62047e-09
3.5747e-06
-2.70536e-07
3.56436e-06
-4.15099e-07
3.55528e-06
-3.27859e-07
3.54935e-06
-2.75156e-07
3.54896e-06
-1.95297e-07
3.54566e-06
-1.3064e-07
3.54232e-06
-9.77462e-08
3.54027e-06
-4.39111e-08
3.53565e-06
5.34008e-09
3.53256e-06
4.53298e-08
9.74146e-08
3.53457e-06
3.73823e-06
-4.61383e-07
3.77228e-06
4.64272e-07
3.78568e-06
1.45998e-07
3.75645e-06
-1.19224e-06
3.69564e-06
-1.64631e-06
3.69067e-06
-6.5016e-07
3.70748e-06
-6.30309e-08
3.73533e-06
9.06059e-08
3.74842e-06
-9.46531e-09
3.74509e-06
-2.6721e-07
3.73496e-06
-4.04965e-07
3.72631e-06
-3.19206e-07
3.71961e-06
-2.68464e-07
3.71896e-06
-1.94648e-07
3.71568e-06
-1.27352e-07
3.71178e-06
-9.38456e-08
3.70998e-06
-4.21179e-08
3.70618e-06
9.1469e-09
3.70289e-06
4.86178e-08
9.54075e-08
3.70489e-06
3.91708e-06
-4.4428e-07
3.95204e-06
4.29313e-07
3.96521e-06
1.32833e-07
3.93489e-06
-1.16192e-06
3.87468e-06
-1.5861e-06
3.86916e-06
-6.44635e-07
3.88627e-06
-8.01486e-08
3.91372e-06
6.31579e-08
3.92713e-06
-2.28745e-08
3.92362e-06
-2.63696e-07
3.91363e-06
-3.94976e-07
3.90547e-06
-3.11046e-07
3.89815e-06
-2.61147e-07
3.89708e-06
-1.93576e-07
3.89401e-06
-1.24278e-07
3.88962e-06
-8.94546e-08
3.88791e-06
-4.04089e-08
3.88497e-06
1.20807e-08
3.88178e-06
5.18097e-08
9.37102e-08
3.88348e-06
4.10457e-06
-4.26601e-07
4.14016e-06
3.93722e-07
4.15336e-06
1.19632e-07
4.12182e-06
-1.13038e-06
4.06234e-06
-1.52662e-06
4.05629e-06
-6.38585e-07
4.07362e-06
-9.74771e-08
4.10062e-06
3.61574e-08
4.11427e-06
-3.65264e-08
4.11064e-06
-2.60065e-07
4.10076e-06
-3.85098e-07
4.09311e-06
-3.03393e-07
4.08532e-06
-2.53361e-07
4.08369e-06
-1.91942e-07
4.08095e-06
-1.21542e-07
4.0762e-06
-8.4708e-08
4.0744e-06
-3.86012e-08
4.07228e-06
1.42003e-08
4.06948e-06
5.46046e-08
9.23899e-08
4.0708e-06
4.30113e-06
-4.08427e-07
4.33704e-06
3.57807e-07
4.35056e-06
1.0612e-07
4.31771e-06
-1.09753e-06
4.25903e-06
-1.46795e-06
4.25249e-06
-6.32047e-07
4.26988e-06
-1.14864e-07
4.2964e-06
9.63661e-09
4.31024e-06
-5.03654e-08
4.30655e-06
-2.5637e-07
4.29675e-06
-3.75305e-07
4.28959e-06
-2.96226e-07
4.28148e-06
-2.45253e-07
4.27918e-06
-1.89646e-07
4.27679e-06
-1.19149e-07
4.27185e-06
-7.97662e-08
4.26984e-06
-3.65934e-08
4.26841e-06
1.5627e-08
4.26624e-06
5.67759e-08
9.13611e-08
4.26727e-06
4.5072e-06
-3.8985e-07
4.54314e-06
3.21868e-07
4.5572e-06
9.20588e-08
4.52307e-06
-1.0634e-06
4.46521e-06
-1.41009e-06
4.45823e-06
-6.25067e-07
4.47547e-06
-1.32111e-07
4.50147e-06
-1.63592e-08
4.51546e-06
-6.43542e-08
4.51175e-06
-2.52666e-07
4.50201e-06
-3.65562e-07
4.49531e-06
-2.89522e-07
4.48702e-06
-2.36961e-07
4.48399e-06
-1.86619e-07
4.48184e-06
-1.17004e-07
4.47692e-06
-7.48376e-08
4.47461e-06
-3.4289e-08
4.47382e-06
1.64191e-08
4.4723e-06
5.82903e-08
9.04249e-08
4.47324e-06
4.72322e-06
-3.70958e-07
4.75891e-06
2.86184e-07
4.77368e-06
7.72892e-08
4.73839e-06
-1.02811e-06
4.68132e-06
-1.35302e-06
4.67399e-06
-6.17731e-07
4.69088e-06
-1.49002e-07
4.71626e-06
-4.1739e-08
4.73037e-06
-7.84667e-08
4.72672e-06
-2.49016e-07
4.71698e-06
-3.55821e-07
4.71072e-06
-2.83262e-07
4.70236e-06
-2.28606e-07
4.69858e-06
-1.82831e-07
4.69662e-06
-1.15047e-07
4.6918e-06
-7.00233e-08
4.68919e-06
-3.1671e-08
4.68889e-06
1.67127e-08
4.68813e-06
5.90499e-08
8.9496e-08
4.68906e-06
4.94968e-06
-3.51844e-07
4.98486e-06
2.51004e-07
5.00038e-06
6.17675e-08
4.96416e-06
-9.91886e-07
4.90786e-06
-1.29672e-06
4.90027e-06
-6.10146e-07
4.91664e-06
-1.65371e-07
4.94126e-06
-6.63607e-08
4.95545e-06
-9.2658e-08
4.95193e-06
-2.45494e-07
4.94215e-06
-3.46043e-07
4.9363e-06
-2.77411e-07
4.92798e-06
-2.20282e-07
4.92346e-06
-1.78315e-07
4.9216e-06
-1.13183e-07
4.91705e-06
-6.54792e-08
4.91408e-06
-2.86951e-08
4.91411e-06
1.66833e-08
4.91415e-06
5.9008e-08
8.8446e-08
4.9152e-06
5.18707e-06
-3.32596e-07
5.22152e-06
2.16549e-07
5.23772e-06
4.5572e-08
5.20088e-06
-9.55048e-07
5.14529e-06
-1.24113e-06
5.13757e-06
-6.0243e-07
5.15333e-06
-1.81127e-07
5.17703e-06
-9.00582e-08
5.19122e-06
-1.06851e-07
5.1879e-06
-2.42174e-07
5.17807e-06
-3.36214e-07
5.17256e-06
-2.71899e-07
5.16438e-06
-2.12098e-07
5.15914e-06
-1.73075e-07
5.1573e-06
-1.11349e-07
5.15318e-06
-6.1354e-08
5.14989e-06
-2.54103e-08
5.15003e-06
1.65511e-08
5.15086e-06
5.81735e-08
8.71082e-08
5.1522e-06
5.4359e-06
-3.13307e-07
5.46945e-06
1.82997e-07
5.48612e-06
2.89038e-08
5.44907e-06
-9.18e-07
5.39414e-06
-1.1862e-06
5.38639e-06
-5.94676e-07
5.40154e-06
-1.96274e-07
5.42414e-06
-1.12663e-07
5.43821e-06
-1.20915e-07
5.43515e-06
-2.39122e-07
5.42531e-06
-3.26366e-07
5.42005e-06
-2.66641e-07
5.4121e-06
-2.04146e-07
5.40619e-06
-1.67174e-07
5.4043e-06
-1.09449e-07
5.40069e-06
-5.77478e-08
5.39723e-06
-2.19497e-08
5.39724e-06
1.65351e-08
5.39874e-06
5.66817e-08
8.52611e-08
5.40058e-06
5.69671e-06
-2.94063e-07
5.72923e-06
1.50479e-07
5.74608e-06
1.20582e-08
5.70926e-06
-8.81186e-07
5.65498e-06
-1.13191e-06
5.64718e-06
-5.86874e-07
5.66183e-06
-2.10922e-07
5.68318e-06
-1.34022e-07
5.69696e-06
-1.34689e-07
5.6942e-06
-2.36363e-07
5.68443e-06
-3.16591e-07
5.67935e-06
-2.61566e-07
5.67171e-06
-1.96505e-07
5.66525e-06
-1.60715e-07
5.66316e-06
-1.07355e-07
5.66016e-06
-5.47525e-08
5.65665e-06
-1.84397e-08
5.65641e-06
1.67807e-08
5.65832e-06
5.47686e-08
8.27538e-08
5.66083e-06
5.97008e-06
-2.74953e-07
6.00148e-06
1.19083e-07
6.01815e-06
-4.61687e-09
5.98201e-06
-8.45042e-07
5.92842e-06
-1.07833e-06
5.92044e-06
-5.78896e-07
5.93473e-06
-2.25209e-07
5.95476e-06
-1.54055e-07
5.96806e-06
-1.47981e-07
5.96559e-06
-2.33901e-07
5.95599e-06
-3.06983e-07
5.95105e-06
-2.56631e-07
5.94383e-06
-1.89288e-07
5.93685e-06
-1.53732e-07
5.93453e-06
-1.0503e-07
5.93211e-06
-5.23385e-08
5.92876e-06
-1.50895e-08
5.92817e-06
1.73764e-08
5.9302e-06
5.27375e-08
7.95818e-08
5.93337e-06
6.2566e-06
-2.56069e-07
6.28683e-06
8.88577e-08
6.30297e-06
-2.07628e-08
6.26789e-06
-8.09956e-07
6.2151e-06
-1.02554e-06
6.20673e-06
-5.70526e-07
6.22077e-06
-2.39247e-07
6.23952e-06
-1.72805e-07
6.25212e-06
-1.60579e-07
6.2499e-06
-2.31686e-07
6.24054e-06
-2.97617e-07
6.23578e-06
-2.51878e-07
6.22904e-06
-1.82549e-07
6.22162e-06
-1.46308e-07
6.21896e-06
-1.0237e-07
6.21719e-06
-5.05707e-08
6.21412e-06
-1.20195e-08
6.2132e-06
1.83038e-08
6.21509e-06
5.08472e-08
7.59301e-08
6.21874e-06
6.5569e-06
-2.37495e-07
6.58594e-06
5.9817e-08
6.60126e-06
-3.60839e-08
6.56747e-06
-7.76169e-07
6.51574e-06
-9.73808e-07
6.50669e-06
-5.61473e-07
6.52052e-06
-2.53083e-07
6.53806e-06
-1.90343e-07
6.54983e-06
-1.72353e-07
6.54774e-06
-2.29588e-07
6.53865e-06
-2.88531e-07
6.53415e-06
-2.47378e-07
6.52796e-06
-1.76362e-07
6.52021e-06
-1.38556e-07
6.51705e-06
-9.92113e-08
6.51594e-06
-4.94615e-08
6.51336e-06
-9.44176e-09
6.51217e-06
1.94988e-08
6.51376e-06
4.92542e-08
7.21515e-08
6.51754e-06
6.87163e-06
-2.19333e-07
6.89944e-06
3.20072e-08
6.91381e-06
-5.0454e-08
6.88126e-06
-7.43623e-07
6.831e-06
-9.23547e-07
6.82103e-06
-5.51501e-07
6.83451e-06
-2.66566e-07
6.85102e-06
-2.06855e-07
6.8619e-06
-1.83225e-07
6.8598e-06
-2.27493e-07
6.85087e-06
-2.79597e-07
6.84671e-06
-2.43218e-07
6.84124e-06
-1.70889e-07
6.83321e-06
-1.30528e-07
6.82944e-06
-9.54406e-08
6.82888e-06
-4.89037e-08
6.82708e-06
-7.64154e-09
6.82573e-06
2.08459e-08
6.82697e-06
4.80192e-08
6.85863e-08
6.83053e-06
7.2015e-06
-2.01694e-07
7.22797e-06
5.53667e-09
7.24153e-06
-6.40119e-08
7.20971e-06
-7.11807e-07
7.16157e-06
-8.75408e-07
7.15055e-06
-5.40484e-07
7.16333e-06
-2.79344e-07
7.17902e-06
-2.22547e-07
7.18903e-06
-1.93231e-07
7.18681e-06
-2.25275e-07
7.17784e-06
-2.70629e-07
7.17403e-06
-2.39405e-07
7.16943e-06
-1.6629e-07
7.16134e-06
-1.22439e-07
7.15681e-06
-9.09121e-08
7.15659e-06
-4.86813e-08
7.1558e-06
-6.85215e-09
7.1545e-06
2.21472e-08
7.15546e-06
4.70597e-08
6.54783e-08
7.15857e-06
7.54725e-06
-1.84718e-07
7.57215e-06
-1.93651e-08
7.5853e-06
-7.71561e-08
7.55347e-06
-6.79979e-07
7.50812e-06
-8.30057e-07
7.49606e-06
-5.28424e-07
7.50767e-06
-2.90959e-07
7.5227e-06
-2.37578e-07
7.53192e-06
-2.02453e-07
7.52949e-06
-2.22843e-07
7.52033e-06
-2.61468e-07
7.51662e-06
-2.35699e-07
7.51306e-06
-1.62727e-07
7.50519e-06
-1.14564e-07
7.49988e-06
-8.5604e-08
7.49969e-06
-4.84977e-08
7.50005e-06
-7.20595e-09
7.49909e-06
2.31019e-08
7.49986e-06
4.6292e-08
6.27793e-08
7.50256e-06
7.90965e-06
-1.68554e-07
7.9327e-06
-4.24185e-08
7.94591e-06
-9.03662e-08
7.91338e-06
-6.47448e-07
7.87115e-06
-7.87826e-07
7.85841e-06
-5.15687e-07
7.86827e-06
-3.0082e-07
7.88267e-06
-2.51973e-07
7.89124e-06
-2.11026e-07
7.88856e-06
-2.20159e-07
7.87911e-06
-2.52019e-07
7.87517e-06
-2.31757e-07
7.87264e-06
-1.602e-07
7.86537e-06
-1.07294e-07
7.8594e-06
-7.96328e-08
7.8589e-06
-4.80025e-08
7.86032e-06
-8.61724e-09
7.86009e-06
2.33263e-08
7.86074e-06
4.56467e-08
6.02753e-08
7.86324e-06
8.2895e-06
-1.53373e-07
8.31036e-06
-6.32842e-08
8.32409e-06
-1.04091e-07
8.29049e-06
-6.13853e-07
8.25122e-06
-7.48549e-07
8.23847e-06
-5.0294e-07
8.24614e-06
-3.08487e-07
8.25952e-06
-2.65356e-07
8.26766e-06
-2.19168e-07
8.26473e-06
-2.17229e-07
8.25489e-06
-2.4218e-07
8.25036e-06
-2.27226e-07
8.24867e-06
-1.58511e-07
8.24245e-06
-1.01072e-07
8.23615e-06
-7.33331e-08
8.23506e-06
-4.69096e-08
8.23726e-06
-1.08136e-08
8.23817e-06
2.24164e-08
8.23877e-06
4.50455e-08
5.78044e-08
8.24124e-06
8.68764e-06
-1.3935e-07
8.70598e-06
-8.16252e-08
8.7205e-06
-1.18612e-07
8.68594e-06
-5.79295e-07
8.64887e-06
-7.11475e-07
8.6369e-06
-4.90965e-07
8.64214e-06
-3.13728e-07
8.65405e-06
-2.77265e-07
8.6618e-06
-2.26925e-07
8.6587e-06
-2.1413e-07
8.64841e-06
-2.3189e-07
8.64304e-06
-2.21851e-07
8.64191e-06
-1.57381e-07
8.63711e-06
-9.6273e-08
8.631e-06
-6.7219e-08
8.62919e-06
-4.50993e-08
8.63164e-06
-1.32639e-08
8.63395e-06
2.01036e-08
8.63475e-06
4.42445e-08
5.54199e-08
8.63713e-06
9.10489e-06
-1.26616e-07
9.1204e-06
-9.71441e-08
9.13582e-06
-1.34031e-07
9.10096e-06
-5.44428e-07
9.06483e-06
-6.7535e-07
9.05421e-06
-4.80339e-07
9.05729e-06
-3.16814e-07
9.06705e-06
-2.87022e-07
9.07434e-06
-2.34218e-07
9.07125e-06
-2.11037e-07
9.06069e-06
-2.2133e-07
9.05423e-06
-2.15394e-07
9.0534e-06
-1.56549e-07
9.05026e-06
-9.31337e-08
9.04478e-06
-6.17422e-08
9.04241e-06
-4.27256e-08
9.04452e-06
-1.53788e-08
9.04813e-06
1.64999e-08
9.04965e-06
4.2724e-08
5.33389e-08
9.05173e-06
9.54218e-06
-1.15333e-07
9.55462e-06
-1.09591e-07
9.57072e-06
-1.50131e-07
9.53662e-06
-5.1033e-07
9.50017e-06
-6.38895e-07
9.49097e-06
-4.71138e-07
9.49238e-06
-3.18222e-07
9.49932e-06
-2.93963e-07
9.50592e-06
-2.40818e-07
9.50341e-06
-2.0853e-07
9.49298e-06
-2.10899e-07
9.48541e-06
-2.07825e-07
9.48455e-06
-1.55687e-07
9.48288e-06
-9.14654e-08
9.47832e-06
-5.71818e-08
9.47574e-06
-4.01453e-08
9.47714e-06
-1.67798e-08
9.48148e-06
1.21653e-08
9.48427e-06
3.99327e-08
5.153e-08
9.48608e-06
1.00004e-05
-1.05587e-07
1.00098e-05
-1.18955e-07
1.00261e-05
-1.66435e-07
9.99394e-06
-4.78213e-07
9.95625e-06
-6.01206e-07
9.948e-06
-4.62886e-07
9.94819e-06
-3.18412e-07
9.95188e-06
-2.97656e-07
9.95769e-06
-2.46623e-07
9.95614e-06
-2.06983e-07
9.94632e-06
-2.01073e-07
9.93797e-06
-1.99476e-07
9.93653e-06
-1.54252e-07
9.93616e-06
-9.10894e-08
9.93262e-06
-5.36458e-08
9.93006e-06
-3.75822e-08
9.93081e-06
-1.75349e-08
9.93507e-06
7.90341e-09
9.93925e-06
3.57562e-08
4.95442e-08
9.94124e-06
1.04805e-05
-9.74195e-08
1.04869e-05
-1.25355e-07
1.05027e-05
-1.82284e-07
1.04738e-05
-4.49294e-07
1.04347e-05
-5.62122e-07
1.04265e-05
-4.54619e-07
1.04262e-05
-3.18206e-07
1.04267e-05
-2.98092e-07
1.04309e-05
-2.50842e-07
1.04304e-05
-2.06489e-07
1.04218e-05
-1.92417e-07
1.04129e-05
-1.90673e-07
1.04106e-05
-1.5193e-07
1.04112e-05
-9.16377e-08
1.04087e-05
-5.11274e-08
1.04063e-05
-3.52133e-08
1.04066e-05
-1.78418e-08
1.04103e-05
4.17647e-09
1.04154e-05
3.06392e-08
4.67457e-08
1.04182e-05
1.09834e-05
-9.08275e-08
1.09871e-05
-1.29029e-07
1.10018e-05
-1.9703e-07
1.09769e-05
-4.24349e-07
1.0937e-05
-5.22236e-07
1.09275e-05
-4.45103e-07
1.0928e-05
-3.18681e-07
1.09257e-05
-2.95825e-07
1.09271e-05
-2.52193e-07
1.09273e-05
-2.06732e-07
1.09202e-05
-1.85292e-07
1.09114e-05
-1.81856e-07
1.09081e-05
-1.48671e-07
1.0909e-05
-9.25403e-08
1.09075e-05
-4.9667e-08
1.09054e-05
-3.30833e-08
1.09055e-05
-1.78802e-08
1.09086e-05
1.0548e-09
1.09139e-05
2.52684e-08
4.28308e-08
1.09179e-05
1.15103e-05
-8.5733e-08
1.15116e-05
-1.30348e-07
1.15246e-05
-2.10069e-07
1.1504e-05
-4.03686e-07
1.14641e-05
-4.82403e-07
1.14524e-05
-4.33331e-07
1.14537e-05
-3.1999e-07
1.14504e-05
-2.92535e-07
1.14484e-05
-2.50189e-07
1.14481e-05
-2.06497e-07
1.14424e-05
-1.79566e-07
1.14342e-05
-1.73665e-07
1.14301e-05
-1.44519e-07
1.14309e-05
-9.34215e-08
1.14304e-05
-4.90962e-08
1.14286e-05
-3.13024e-08
1.14285e-05
-1.77336e-08
1.14311e-05
-1.55805e-09
1.14362e-05
2.01501e-08
3.79761e-08
1.1441e-05
1.20621e-05
-8.19918e-08
1.20616e-05
-1.29852e-07
1.20722e-05
-2.20676e-07
1.20559e-05
-3.8738e-07
1.20172e-05
-4.4373e-07
1.20025e-05
-4.18609e-07
1.2004e-05
-3.21479e-07
1.20012e-05
-2.89794e-07
1.19964e-05
-2.45392e-07
1.19944e-05
-2.04472e-07
1.19896e-05
-1.74748e-07
1.19823e-05
-1.66394e-07
1.19777e-05
-1.39904e-07
1.19782e-05
-9.3935e-08
1.19784e-05
-4.92273e-08
1.1977e-05
-2.99617e-08
1.19768e-05
-1.74821e-08
1.19789e-05
-3.66389e-09
1.19835e-05
1.55073e-08
3.26051e-08
1.19889e-05
1.26399e-05
-7.92771e-08
1.26383e-05
-1.28268e-07
1.26458e-05
-2.28186e-07
1.26336e-05
-3.75144e-07
1.25973e-05
-4.07453e-07
1.25795e-05
-4.00813e-07
1.25798e-05
-3.21774e-07
1.25787e-05
-2.88681e-07
1.25721e-05
-2.3885e-07
1.25678e-05
-2.00103e-07
1.2563e-05
-1.70017e-07
1.25567e-05
-1.6008e-07
1.25521e-05
-1.35258e-07
1.25522e-05
-9.40164e-08
1.25527e-05
-4.98153e-08
1.25519e-05
-2.90711e-08
1.25516e-05
-1.72235e-08
1.25533e-05
-5.36196e-09
1.25574e-05
1.14278e-08
2.71534e-08
1.25628e-05
1.3245e-05
-7.7309e-08
1.32429e-05
-1.26157e-07
1.32469e-05
-2.32247e-07
1.3238e-05
-3.66238e-07
1.32055e-05
-3.74915e-07
1.31846e-05
-3.79977e-07
1.31824e-05
-3.19584e-07
1.3183e-05
-2.8925e-07
1.31763e-05
-2.32119e-07
1.31696e-05
-1.93461e-07
1.31642e-05
-1.64568e-07
1.31586e-05
-1.54528e-07
1.31542e-05
-1.30805e-07
1.31539e-05
-9.37472e-08
1.31549e-05
-5.07481e-08
1.31543e-05
-2.85638e-08
1.31541e-05
-1.69796e-08
1.31555e-05
-6.80662e-09
1.3159e-05
7.93685e-09
2.19648e-08
1.31642e-05
1.38785e-05
-7.5638e-08
1.3877e-05
-1.24638e-07
1.3877e-05
-2.32259e-07
1.38704e-05
-3.59677e-07
1.38424e-05
-3.46925e-07
1.38193e-05
-3.56844e-07
1.38135e-05
-3.13823e-07
1.38148e-05
-2.90462e-07
1.38095e-05
-2.26859e-07
1.38015e-05
-1.85433e-07
1.37948e-05
-1.57868e-07
1.37895e-05
-1.49282e-07
1.37853e-05
-1.26581e-07
1.37848e-05
-9.32975e-08
1.37861e-05
-5.19593e-08
1.37859e-05
-2.84502e-08
1.37857e-05
-1.66959e-08
1.37869e-05
-8.04346e-09
1.37899e-05
4.92826e-09
1.7307e-08
1.37946e-05
1.4542e-05
-7.39575e-08
1.45413e-05
-1.23934e-07
1.45365e-05
-2.27463e-07
1.45315e-05
-3.54653e-07
1.45091e-05
-3.24577e-07
1.4485e-05
-3.32737e-07
1.44748e-05
-3.03614e-07
1.4475e-05
-2.90617e-07
1.44723e-05
-2.24187e-07
1.44644e-05
-1.77542e-07
1.44563e-05
-1.49793e-07
1.44506e-05
-1.43604e-07
1.44466e-05
-1.22531e-07
1.4446e-05
-9.26852e-08
1.44475e-05
-5.34799e-08
1.4448e-05
-2.89093e-08
1.44477e-05
-1.64028e-08
1.44486e-05
-9.02573e-09
1.44513e-05
2.22882e-09
1.32556e-08
1.44554e-05
1.52367e-05
-7.1751e-08
1.52326e-05
-1.19856e-07
1.52246e-05
-2.19471e-07
1.52227e-05
-3.52785e-07
1.52068e-05
-3.08611e-07
1.51821e-05
-3.08089e-07
1.51673e-05
-2.88766e-07
1.51649e-05
-2.88281e-07
1.51653e-05
-2.24512e-07
1.51594e-05
-1.71688e-07
1.51504e-05
-1.40814e-07
1.51439e-05
-1.37108e-07
1.51398e-05
-1.18358e-07
1.51389e-05
-9.1863e-08
1.51407e-05
-5.52063e-08
1.51418e-05
-2.99967e-08
1.51416e-05
-1.62882e-08
1.51423e-05
-9.67754e-09
1.51447e-05
-1.72855e-10
9.72967e-09
1.51482e-05
1.5965e-05
-6.94137e-08
1.59765e-05
-1.31378e-07
1.59696e-05
-2.12596e-07
1.59595e-05
-3.4264e-07
1.59392e-05
-2.88271e-07
1.59121e-05
-2.81071e-07
1.58942e-05
-2.70839e-07
1.58883e-05
-2.8241e-07
1.58899e-05
-2.26115e-07
1.58872e-05
-1.68951e-07
1.58784e-05
-1.32015e-07
1.58708e-05
-1.29513e-07
1.58663e-05
-1.13808e-07
1.58651e-05
-9.0742e-08
1.58669e-05
-5.69407e-08
1.58685e-05
-3.15781e-08
1.58688e-05
-1.6681e-08
1.58692e-05
-1.00416e-08
1.58712e-05
-2.12682e-09
6.55645e-09
1.58743e-05
1.67265e-05
-6.53469e-08
1.67215e-05
-1.26329e-07
1.67081e-05
-1.99184e-07
1.67016e-05
-3.36195e-07
1.66952e-05
-2.81877e-07
1.66771e-05
-2.62886e-07
1.66582e-05
-2.52006e-07
1.66484e-05
-2.72549e-07
1.66486e-05
-2.26341e-07
1.66489e-05
-1.69281e-07
1.66417e-05
-1.24798e-07
1.66333e-05
-1.21111e-07
1.66281e-05
-1.08603e-07
1.66266e-05
-8.9209e-08
1.66281e-05
-5.85204e-08
1.66301e-05
-3.35607e-08
1.6631e-05
-1.75611e-08
1.66314e-05
-1.04495e-08
1.66329e-05
-3.61371e-09
3.80338e-09
1.66356e-05
1.75263e-05
-6.13166e-08
1.75347e-05
-1.34749e-07
1.75179e-05
-1.82312e-07
1.74987e-05
-3.16976e-07
1.74913e-05
-2.74492e-07
1.74781e-05
-2.4969e-07
1.74598e-05
-2.33727e-07
1.74465e-05
-2.59289e-07
1.74434e-05
-2.23199e-07
1.74455e-05
-1.7142e-07
1.74409e-05
-1.20147e-07
1.74324e-05
-1.12663e-07
1.74265e-05
-1.02624e-07
1.74243e-05
-8.70951e-08
1.74256e-05
-5.97333e-08
1.74279e-05
-3.58729e-08
1.74292e-05
-1.88637e-08
1.74299e-05
-1.11697e-08
1.7431e-05
-4.76589e-09
1.45581e-09
1.74334e-05
1.83631e-05
-5.6028e-08
1.83608e-05
-1.32513e-07
1.83479e-05
-1.69387e-07
1.83313e-05
-3.0041e-07
1.83252e-05
-2.68339e-07
1.8316e-05
-2.40522e-07
1.82991e-05
-2.16797e-07