/*--------------------------------*- C++ -*----------------------------------*\
| =========                 |                                                 |
| \\      /  F ield         | OpenFOAM: The Open Source CFD Toolbox           |
|  \\    /   O peration     | Version:  v2012                                 |
|   \\  /    A nd           | Website:  www.openfoam.com                      |
|    \\/     M anipulation  |                                                 |
\*---------------------------------------------------------------------------*/
FoamFile
{
    version     2.0;
    format      ascii;
    class       volVectorField;
    location    "10.7";
    object      U;
}
// * * * * * * * * * * * * * * * * * * * * * * * * * * * * * * * * * * * * * //

dimensions      [0 1 -1 0 0 0 0];


internalField   nonuniform List<vector> 
9600
(
(0.634725 -0.00517836 0)
(1.36773 0.0144935 0)
(0.605862 -0.0063029 0)
(1.23333 -0.0236898 0)
(0.867012 -0.023768 0)
(1.33514 0.00498858 0)
(0.813334 0.0104607 0)
(1.21274 0.0116604 0)
(0.781045 -0.00644483 0)
(1.20335 -0.0151638 0)
(0.860056 -0.0238897 0)
(1.21388 -0.013118 0)
(0.876732 -0.0126967 0)
(1.16791 -0.00264422 0)
(0.894427 -0.00270032 0)
(1.16189 0.00122383 0)
(0.904821 0.000730759 0)
(1.16675 0.00255919 0)
(0.90003 0.00267502 0)
(1.16101 0.0028525 0)
(0.653438 -0.00545028 0)
(1.35295 0.0148858 0)
(0.680571 -0.00536602 0)
(1.18009 -0.0258506 0)
(0.871011 -0.0255037 0)
(1.31729 0.0055352 0)
(0.846516 0.0112821 0)
(1.18568 0.0123734 0)
(0.859122 -0.00666789 0)
(1.16682 -0.0159535 0)
(0.918996 -0.0245546 0)
(1.17965 -0.0131564 0)
(0.931317 -0.012064 0)
(1.13084 -0.00273517 0)
(0.95199 -0.00269975 0)
(1.11072 0.000991568 0)
(0.979885 0.000676104 0)
(1.09091 0.00214305 0)
(1.00679 0.00381579 0)
(1.04711 0.00250559 0)
(0.689077 -0.00570999 0)
(1.32067 0.01511 0)
(0.768794 -0.00434287 0)
(1.11658 -0.0267249 0)
(0.886094 -0.0269914 0)
(1.27596 0.00611507 0)
(0.903983 0.0125248 0)
(1.15109 0.012486 0)
(0.942342 -0.00673008 0)
(1.12422 -0.016426 0)
(0.974916 -0.0247414 0)
(1.1284 -0.0132198 0)
(0.990054 -0.0113037 0)
(1.08421 -0.00306901 0)
(1.00599 -0.0023581 0)
(1.067 0.000415031 0)
(1.02836 0.00111236 0)
(1.05601 0.00162346 0)
(1.04175 0.00467484 0)
(1.03777 0.00336208 0)
(0.738592 -0.00593064 0)
(1.27159 0.0147936 0)
(0.85318 -0.00297027 0)
(1.05257 -0.0273005 0)
(0.906203 -0.0286247 0)
(1.21609 0.00607793 0)
(0.965364 0.0135635 0)
(1.12328 0.0121378 0)
(1.0109 -0.00648676 0)
(1.09121 -0.0166358 0)
(1.01196 -0.0246865 0)
(1.0821 -0.0134701 0)
(1.02372 -0.0106539 0)
(1.05326 -0.00332364 0)
(1.02987 -0.00211026 0)
(1.04956 5.50645e-06 0)
(1.04333 0.00128642 0)
(1.05188 0.00133845 0)
(1.04911 0.00506892 0)
(1.04668 0.00435314 0)
(0.796093 -0.00611902 0)
(1.21133 0.0141293 0)
(0.921804 -0.00140594 0)
(1.00056 -0.0274399 0)
(0.923338 -0.030175 0)
(1.14974 0.00540697 0)
(1.01578 0.0141863 0)
(1.10998 0.0116868 0)
(1.05865 -0.00605741 0)
(1.0745 -0.0164435 0)
(1.02841 -0.024333 0)
(1.05065 -0.0136692 0)
(1.03246 -0.0102324 0)
(1.03826 -0.00344441 0)
(1.03453 -0.00209294 0)
(1.04446 -0.000336313 0)
(1.04669 0.00122032 0)
(1.05327 0.00105763 0)
(1.05355 0.00527865 0)
(1.05281 0.00506204 0)
(0.853756 -0.0062541 0)
(1.14939 0.0133465 0)
(0.969842 0.000154523 0)
(0.968283 -0.0272352 0)
(0.932805 -0.0315446 0)
(1.09038 0.00429049 0)
(1.05008 0.0142522 0)
(1.11039 0.0112259 0)
(1.08874 -0.00549626 0)
(1.07057 -0.0158076 0)
(1.03263 -0.0236778 0)
(1.03176 -0.0137479 0)
(1.02808 -0.010037 0)
(1.02996 -0.00359546 0)
(1.03251 -0.00222524 0)
(1.04135 -0.000744978 0)
(1.04691 0.00100371 0)
(1.05364 0.000741084 0)
(1.05647 0.00530249 0)
(1.05701 0.00562032 0)
(0.90406 -0.0063327 0)
(1.09563 0.0125901 0)
(0.999212 0.00152649 0)
(0.956489 -0.0267225 0)
(0.935392 -0.0326583 0)
(1.04675 0.00283972 0)
(1.07015 0.0136598 0)
(1.11762 0.0107528 0)
(1.10614 -0.00480503 0)
(1.07191 -0.0147957 0)
(1.03215 -0.02272 0)
(1.02007 -0.0136946 0)
(1.0196 -0.00997896 0)
(1.02286 -0.00386293 0)
(1.02854 -0.0024563 0)
(1.03756 -0.00123817 0)
(1.04513 0.00067486 0)
(1.05212 0.000380567 0)
(1.05677 0.00511882 0)
(1.05885 0.00606501 0)
(0.942143 -0.00637183 0)
(1.05613 0.0119419 0)
(1.01545 0.00259204 0)
(0.959938 -0.0259822 0)
(0.935378 -0.0334984 0)
(1.01994 0.00109352 0)
(1.07996 0.0124726 0)
(1.12398 0.0102649 0)
(1.11372 -0.00397904 0)
(1.07261 -0.0135218 0)
(1.03033 -0.0215022 0)
(1.01216 -0.0135023 0)
(1.01111 -0.00997201 0)
(1.01562 -0.00424786 0)
(1.0235 -0.00278421 0)
(1.03261 -0.0017912 0)
(1.04139 0.000254658 0)
(1.04833 -1.97851e-05 0)
(1.05408 0.00476172 0)
(1.05752 0.00638326 0)
(0.966912 -0.00639182 0)
(1.03143 0.0114134 0)
(1.02413 0.00334141 0)
(0.971167 -0.025098 0)
(0.936798 -0.0340603 0)
(1.00562 -0.000855722 0)
(1.0822 0.0109051 0)
(1.12427 0.00976895 0)
(1.11253 -0.00304388 0)
(1.06983 -0.0121101 0)
(1.0278 -0.0201131 0)
(1.0066 -0.0131851 0)
(1.004 -0.00995863 0)
(1.00849 -0.00470962 0)
(1.01749 -0.0031867 0)
(1.02627 -0.00237071 0)
(1.03555 -0.000236361 0)
(1.04212 -0.000427195 0)
(1.04829 0.00429228 0)
(1.05271 0.00656887 0)
(0.980539 -0.00640271 0)
(1.01792 0.0109635 0)
(1.02876 0.003826 0)
(0.984172 -0.0241267 0)
(0.941266 -0.0343675 0)
(0.998153 -0.00286827 0)
(1.0779 0.00918278 0)
(1.11643 0.00929752 0)
(1.10343 -0.00204897 0)
(1.06305 -0.0106847 0)
(1.02447 -0.0186669 0)
(1.00276 -0.0127785 0)
(0.998642 -0.00989804 0)
(1.00197 -0.00518069 0)
(1.01074 -0.0036123 0)
(1.0186 -0.00294137 0)
(1.02762 -0.00076334 0)
(1.03361 -0.000805978 0)
(1.03966 0.00376351 0)
(1.04465 0.00661934 0)
(0.986844 -0.00640073 0)
(1.0109 0.0105383 0)
(1.03065 0.00409788 0)
(0.995621 -0.0231303 0)
(0.948291 -0.0344334 0)
(0.993222 -0.0047886 0)
(1.06759 0.00748581 0)
(1.10093 0.00887124 0)
(1.08809 -0.00107124 0)
(1.05313 -0.00936659 0)
(1.02037 -0.017275 0)
(1.00017 -0.0123253 0)
(0.994989 -0.00976887 0)
(0.996501 -0.00558524 0)
(1.00385 -0.00400642 0)
(1.01025 -0.00344924 0)
(1.01821 -0.0012869 0)
(1.02345 -0.00113641 0)
(1.02896 0.00321212 0)
(1.03413 0.00654359 0)
(0.989499 -0.0063782 0)
(1.0068 0.010108 0)
(1.03013 0.00420028 0)
(1.00418 -0.0221746 0)
(0.956583 -0.0342701 0)
(0.988511 -0.00645594 0)
(1.05243 0.00595496 0)
(1.08005 0.00849633 0)
(1.06916 -0.000188188 0)
(1.04161 -0.00825348 0)
(1.0158 -0.0160227 0)
(0.998369 -0.0118691 0)
(0.99277 -0.00957491 0)
(0.992404 -0.00587392 0)
(0.997706 -0.00432268 0)
(1.00233 -0.00384887 0)
(1.00861 -0.00176705 0)
(1.01285 -0.001419 0)
(1.01752 0.00267052 0)
(1.02248 0.00636767 0)
(0.990926 -0.0063316 0)
(1.00379 0.00967546 0)
(1.02773 0.00417497 0)
(1.00965 -0.0213117 0)
(0.964876 -0.0339068 0)
(0.983521 -0.00780318 0)
(1.0348 0.00467205 0)
(1.05728 0.00815165 0)
(1.04978 0.000535791 0)
(1.03023 -0.00740172 0)
(1.01122 -0.0149574 0)
(0.996982 -0.0114497 0)
(0.991607 -0.00933879 0)
(0.989774 -0.00603806 0)
(0.99307 -0.00453595 0)
(0.995943 -0.00412171 0)
(1.00031 -0.00216023 0)
(1.00331 -0.00163281 0)
(1.00691 0.00218489 0)
(1.01126 0.00612795 0)
(0.992189 -0.00626312 0)
(1.00129 0.00925915 0)
(1.02441 0.00406322 0)
(1.01252 -0.0205684 0)
(0.972194 -0.033385 0)
(0.978902 -0.00879747 0)
(1.01787 0.00365193 0)
(1.03623 0.00779886 0)
(1.03274 0.00105562 0)
(1.0204 -0.00681617 0)
(1.00711 -0.0140852 0)
(0.995767 -0.0110915 0)
(0.9911 -0.00909237 0)
(0.988438 -0.00609695 0)
(0.990263 -0.00465733 0)
(0.991735 -0.00426359 0)
(0.99431 -0.00244779 0)
(0.99596 -0.00175051 0)
(0.998372 0.00180089 0)
(1.00181 0.00586416 0)
(0.99349 -0.00617776 0)
(0.999251 0.00887355 0)
(1.02107 0.00390829 0)
(1.01359 -0.0199392 0)
(0.977988 -0.0327486 0)
(0.97548 -0.00945751 0)
(1.0042 0.00285676 0)
(1.01945 0.00740375 0)
(1.01961 0.00136784 0)
(1.01284 -0.00645808 0)
(1.00376 -0.0133838 0)
(0.994654 -0.0107925 0)
(0.990906 -0.00886822 0)
(0.988011 -0.00609056 0)
(0.989049 -0.00471438 0)
(0.989624 -0.00429493 0)
(0.990813 -0.00261472 0)
(0.991209 -0.00177986 0)
(0.992459 0.00153243 0)
(0.994823 0.00561546 0)
(0.994713 -0.00607908 0)
(0.997718 0.00851917 0)
(1.01823 0.00372679 0)
(1.01366 -0.0194059 0)
(0.982175 -0.032029 0)
(0.973575 -0.00987199 0)
(0.994803 0.00223674 0)
(1.00774 0.00696232 0)
(1.0106 0.00151489 0)
(1.00757 -0.00626135 0)
(1.00127 -0.012813 0)
(0.993686 -0.0105388 0)
(0.99081 -0.00868504 0)
(0.98806 -0.00605381 0)
(0.988853 -0.0047393 0)
(0.989014 -0.00425289 0)
(0.989311 -0.00266998 0)
(0.988717 -0.0017264 0)
(0.988981 0.00137931 0)
(0.990278 0.00542037 0)
(0.99573 -0.00597035 0)
(0.996673 0.00818881 0)
(1.016 0.00352326 0)
(1.01326 -0.0189431 0)
(0.985006 -0.0312593 0)
(0.972965 -0.0101039 0)
(0.989222 0.00175387 0)
(1.00042 0.00648989 0)
(1.0049 0.00154428 0)
(1.00415 -0.00616244 0)
(0.999571 -0.0123318 0)
(0.992936 -0.0103139 0)
(0.990731 -0.00854602 0)
(0.988264 -0.00601045 0)
(0.989092 -0.00475035 0)
(0.989178 -0.00417796 0)
(0.989001 -0.00264316 0)
(0.987754 -0.00160487 0)
(0.987305 0.00132484 0)
(0.9877 0.00529718 0)
(0.996489 -0.00585394 0)
(0.99605 0.0078747 0)
(1.01428 0.00331252 0)
(1.0127 -0.0185279 0)
(0.986844 -0.030458 0)
(0.973206 -0.0102213 0)
(0.986308 0.0013618 0)
(0.996206 0.00599617 0)
(1.00146 0.00149232 0)
(1.002 -0.00611591 0)
(0.998487 -0.011914 0)
(0.992449 -0.0100974 0)
(0.990673 -0.00844457 0)
(0.98847 -0.00597911 0)
(0.989383 -0.00474911 0)
(0.989556 -0.00410384 0)
(0.989171 -0.00256051 0)
(0.98757 -0.00143263 0)
(0.986695 0.00134158 0)
(0.986439 0.00523632 0)
(0.99699 -0.00573112 0)
(0.995767 0.00756909 0)
(1.01294 0.00310328 0)
(1.01213 -0.0181446 0)
(0.988009 -0.0296339 0)
(0.973893 -0.0102754 0)
(0.984957 0.00102504 0)
(0.993908 0.00548987 0)
(0.999385 0.00138779 0)
(1.00067 -0.0060912 0)
(0.997844 -0.011544 0)
(0.992219 -0.00987848 0)
(0.990656 -0.00836636 0)
(0.988644 -0.0059576 0)
(0.989561 -0.00473889 0)
(0.989859 -0.00403976 0)
(0.989385 -0.00244716 0)
(0.987635 -0.00123342 0)
(0.986558 0.00139949 0)
(0.985912 0.00521292 0)
(0.997261 -0.00560285 0)
(0.99575 0.00726537 0)
(1.01186 0.00289849 0)
(1.01162 -0.0177807 0)
(0.988733 -0.0287937 0)
(0.974756 -0.0102926 0)
(0.984408 0.000722524 0)
(0.992695 0.004979 0)
(0.998097 0.00124646 0)
(0.999834 -0.00607015 0)
(0.997496 -0.0112122 0)
(0.992199 -0.0096535 0)
(0.990684 -0.00829434 0)
(0.988793 -0.00594305 0)
(0.989609 -0.00471689 0)
(0.990011 -0.00398111 0)
(0.989476 -0.00231789 0)
(0.987689 -0.00102041 0)
(0.986551 0.00148235 0)
(0.985725 0.00521111 0)
(0.997332 -0.00546958 0)
(0.995935 0.00695899 0)
(1.01097 0.00269872 0)
(1.01117 -0.0174275 0)
(0.989179 -0.0279429 0)
(0.975654 -0.0102828 0)
(0.984249 0.000442701 0)
(0.992095 0.00446844 0)
(0.99728 0.00107963 0)
(0.999312 -0.00604346 0)
(0.997335 -0.01091 0)
(0.992328 -0.00942161 0)
(0.990748 -0.00821468 0)
(0.988934 -0.00593632 0)
(0.98957 -0.00467852 0)
(0.990049 -0.00391976 0)
(0.98945 -0.00218928 0)
(0.987679 -0.000791521 0)
(0.986556 0.00158201 0)
(0.985692 0.00522299 0)
(0.997244 -0.00533074 0)
(0.996257 0.00664325 0)
(1.01024 0.00250809 0)
(1.01078 -0.0170792 0)
(0.989462 -0.0270865 0)
(0.976538 -0.0102537 0)
(0.984301 0.000172155 0)
(0.991854 0.00395477 0)
(0.99676 0.000885769 0)
(0.998979 -0.00600841 0)
(0.997287 -0.0106295 0)
(0.992546 -0.00918344 0)
(0.990839 -0.00812265 0)
(0.989078 -0.0059346 0)
(0.9895 -0.00462045 0)
(0.990038 -0.00385435 0)
(0.989384 -0.00206489 0)
(0.987653 -0.00055327 0)
(0.986587 0.00168208 0)
(0.985772 0.00522964 0)
(0.99705 -0.00518675 0)
(0.996648 0.00631611 0)
(1.0096 0.00232596 0)
(1.01042 -0.0167309 0)
(0.989666 -0.0262259 0)
(0.977404 -0.0102096 0)
(0.984509 -9.57446e-05 0)
(0.991829 0.00343747 0)
(0.996425 0.000666544 0)
(0.998744 -0.00596223 0)
(0.997294 -0.0103624 0)
(0.992805 -0.0089428 0)
(0.990959 -0.00801477 0)
(0.989237 -0.00593448 0)
(0.98945 -0.00454414 0)
(0.990035 -0.0037775 0)
(0.989352 -0.00194716 0)
(0.987666 -0.000312475 0)
(0.986686 0.00177913 0)
(0.985977 0.0052036 0)
(0.996814 -0.0050374 0)
(0.997044 0.00597651 0)
(1.00904 0.00215185 0)
(1.01003 -0.0163786 0)
(0.989849 -0.0253625 0)
(0.978253 -0.010155 0)
(0.984848 -0.000363647 0)
(0.991924 0.00292076 0)
(0.996194 0.000432998 0)
(0.99854 -0.00590832 0)
(0.99732 -0.0101056 0)
(0.993069 -0.00870519 0)
(0.991112 -0.00788282 0)
(0.989418 -0.00593121 0)
(0.989457 -0.0044533 0)
(0.99007 -0.00368373 0)
(0.989396 -0.00184253 0)
(0.987749 -8.26296e-05 0)
(0.986875 0.00187848 0)
(0.986309 0.00511881 0)
(0.9966 -0.00488126 0)
(0.997391 0.00562161 0)
(1.00854 0.00198449 0)
(1.00961 -0.0160169 0)
(0.99004 -0.0244987 0)
(0.979078 -0.0100932 0)
(0.98529 -0.000636213 0)
(0.992071 0.00240508 0)
(0.99601 0.000186297 0)
(0.998328 -0.00584982 0)
(0.99735 -0.00985766 0)
(0.99332 -0.00847332 0)
(0.991298 -0.00772693 0)
(0.989621 -0.00592034 0)
(0.989539 -0.00435038 0)
(0.990154 -0.00357595 0)
(0.989532 -0.00175339 0)
(0.987905 0.00014349 0)
(0.987145 0.00201098 0)
(0.986742 0.00498521 0)
(0.996456 -0.00471857 0)
(0.997657 0.00525449 0)
(1.00807 0.00182065 0)
(1.00913 -0.0156433 0)
(0.990251 -0.0236386 0)
(0.979867 -0.0100195 0)
(0.9858 -0.000916557 0)
(0.992233 0.00189367 0)
(0.995842 -6.67687e-05 0)
(0.998096 -0.00578495 0)
(0.997377 -0.00961392 0)
(0.993547 -0.00825 0)
(0.991513 -0.00754909 0)
(0.98984 -0.00590511 0)
(0.989695 -0.00423693 0)
(0.990285 -0.0034442 0)
(0.989758 -0.00168609 0)
(0.988131 0.000339123 0)
(0.987472 0.00218693 0)
(0.987233 0.00484906 0)
(0.996404 -0.0045497 0)
(0.997839 0.00487651 0)
(1.00763 0.00166335 0)
(1.00863 -0.0152572 0)
(0.990485 -0.0227867 0)
(0.980616 -0.00993511 0)
(0.98634 -0.00120151 0)
(0.992395 0.00139288 0)
(0.995674 -0.000323864 0)
(0.997845 -0.0057133 0)
(0.997399 -0.00937458 0)
(0.993749 -0.00803667 0)
(0.991745 -0.00735394 0)
(0.990066 -0.00588246 0)
(0.989913 -0.00413097 0)
(0.99045 -0.00328816 0)
(0.990054 -0.00162176 0)
(0.98842 0.000477514 0)
(0.987843 0.00237002 0)
(0.987745 0.00475754 0)
(0.996441 -0.00437437 0)
(0.997952 0.00448858 0)
(1.00721 0.00150932 0)
(1.00812 -0.0148561 0)
(0.99074 -0.0219454 0)
(0.981335 -0.00984222 0)
(0.986878 -0.00148815 0)
(0.992551 0.00089957 0)
(0.995499 -0.00058991 0)
(0.997576 -0.00563842 0)
(0.99741 -0.00914063 0)
(0.993924 -0.00783105 0)
(0.991978 -0.00714156 0)
(0.99029 -0.00584275 0)
(0.990174 -0.00404268 0)
(0.990638 -0.00311675 0)
(0.990399 -0.00155025 0)
(0.988759 0.000562933 0)
(0.988252 0.00251209 0)
(0.988257 0.00471036 0)
(0.996543 -0.00419375 0)
(0.998025 0.00409584 0)
(1.0068 0.00134861 0)
(1.00763 -0.0144345 0)
(0.991017 -0.0211151 0)
(0.98204 -0.00974439 0)
(0.987392 -0.00178056 0)
(0.9927 0.000410233 0)
(0.995312 -0.000860398 0)
(0.997293 -0.00556023 0)
(0.997403 -0.00891204 0)
(0.994079 -0.00763744 0)
(0.992197 -0.00691305 0)
(0.990504 -0.00578124 0)
(0.99046 -0.00396185 0)
(0.99084 -0.00293816 0)
(0.990767 -0.00147342 0)
(0.989132 0.000622044 0)
(0.988692 0.00260455 0)
(0.988767 0.0046686 0)
(0.996682 -0.00400862 0)
(0.998082 0.00370195 0)
(1.00638 0.00118069 0)
(1.00716 -0.013996 0)
(0.991312 -0.0202947 0)
(0.982751 -0.00964232 0)
(0.987876 -0.00207057 0)
(0.99284 -7.27359e-05 0)
(0.995114 -0.00113358 0)
(0.996996 -0.00547961 0)
(0.997373 -0.00868732 0)
(0.994217 -0.0074609 0)
(0.992393 -0.00668125 0)
(0.990706 -0.00569812 0)
(0.990752 -0.00388866 0)
(0.991049 -0.00276547 0)
(0.99114 -0.00138622 0)
(0.989527 0.000681224 0)
(0.989146 0.00267538 0)
(0.98927 0.00460925 0)
(0.996833 -0.00381978 0)
(0.998143 0.00330975 0)
(1.00596 0.0010068 0)
(1.00672 -0.013541 0)
(0.991623 -0.0194864 0)
(0.983478 -0.00953453 0)
(0.988335 -0.00235145 0)
(0.992971 -0.00054256 0)
(0.99491 -0.00141239 0)
(0.99669 -0.0053985 0)
(0.997318 -0.00846146 0)
(0.994346 -0.00729721 0)
(0.992562 -0.00645077 0)
(0.990894 -0.00559438 0)
(0.99104 -0.00382299 0)
(0.991261 -0.0025939 0)
(0.991504 -0.00129283 0)
(0.989933 0.000719633 0)
(0.989599 0.00273605 0)
(0.989757 0.00454323 0)
(0.99698 -0.00362894 0)
(0.998217 0.00292395 0)
(1.00554 0.000824497 0)
(1.00628 -0.0130741 0)
(0.991943 -0.0186868 0)
(0.984226 -0.0094175 0)
(0.988781 -0.00262882 0)
(0.993098 -0.00100105 0)
(0.994711 -0.00169925 0)
(0.996381 -0.00531507 0)
(0.997243 -0.00823391 0)
(0.994469 -0.00714688 0)
(0.992705 -0.00622002 0)
(0.991069 -0.00546432 0)
(0.991317 -0.00376062 0)
(0.991476 -0.00242352 0)
(0.991847 -0.00118653 0)
(0.990345 0.000719921 0)
(0.990046 0.00276658 0)
(0.99022 0.00448914 0)
(0.997116 -0.00343523 0)
(0.998309 0.00254368 0)
(1.00512 0.000633935 0)
(1.00585 -0.0125993 0)
(0.992266 -0.0178967 0)
(0.984987 -0.00930229 0)
(0.989224 -0.00289451 0)
(0.993228 -0.0014376 0)
(0.994529 -0.00198307 0)
(0.996078 -0.00523506 0)
(0.997154 -0.0079976 0)
(0.994593 -0.00700712 0)
(0.992829 -0.00599115 0)
(0.991232 -0.00531168 0)
(0.991582 -0.00369973 0)
(0.991696 -0.00226265 0)
(0.992164 -0.00105846 0)
(0.990754 0.000703072 0)
(0.990492 0.00274535 0)
(0.990659 0.00444059 0)
(0.997241 -0.00324118 0)
(0.998418 0.00217408 0)
(1.0047 0.000434144 0)
(1.00542 -0.012116 0)
(0.992586 -0.017116 0)
(0.985757 -0.00918906 0)
(0.989675 -0.00314697 0)
(0.993368 -0.00185279 0)
(0.994371 -0.00226582 0)
(0.995789 -0.00517123 0)
(0.997058 -0.00776122 0)
(0.994719 -0.00687499 0)
(0.992944 -0.00577082 0)
(0.991385 -0.00514379 0)
(0.991838 -0.00363783 0)
(0.991924 -0.00212087 0)
(0.992457 -0.000915381 0)
(0.99115 0.000700717 0)
(0.990935 0.00268062 0)
(0.991082 0.00437117 0)
(0.997356 -0.00304874 0)
(0.998539 0.00181838 0)
(1.0043 0.000231096 0)
(1.00498 -0.0116358 0)
(0.9929 -0.0163429 0)
(0.986522 -0.00907261 0)
(0.990135 -0.00339482 0)
(0.993518 -0.0022481 0)
(0.994241 -0.0025464 0)
(0.995514 -0.0051172 0)
(0.99696 -0.00753218 0)
(0.994852 -0.00674272 0)
(0.993058 -0.00555879 0)
(0.99153 -0.00495962 0)
(0.992087 -0.00357391 0)
(0.992163 -0.00200279 0)
(0.992731 -0.00077844 0)
(0.991528 0.00071424 0)
(0.991368 0.00259493 0)
(0.991497 0.00426495 0)
(0.997466 -0.00285585 0)
(0.998667 0.00146973 0)
(1.00391 2.9861e-05 0)
(1.00454 -0.0111669 0)
(0.993204 -0.0155744 0)
(0.987279 -0.00895384 0)
(0.990601 -0.00363683 0)
(0.993677 -0.00261828 0)
(0.994137 -0.00281274 0)
(0.995256 -0.00506655 0)
(0.996863 -0.00730291 0)
(0.99499 -0.00660777 0)
(0.993174 -0.00535119 0)
(0.991667 -0.00475879 0)
(0.992328 -0.0035034 0)
(0.992412 -0.00190479 0)
(0.992991 -0.000645411 0)
(0.991887 0.000735266 0)
(0.991787 0.00250105 0)
(0.991906 0.00412232 0)
(0.997572 -0.00266377 0)
(0.998802 0.00113231 0)
(1.00353 -0.000170799 0)
(1.00411 -0.0107068 0)
(0.993499 -0.0148199 0)
(0.988018 -0.00882675 0)
(0.991068 -0.00387752 0)
(0.993842 -0.00296483 0)
(0.994058 -0.00306549 0)
(0.995016 -0.00502337 0)
(0.996766 -0.00708014 0)
(0.995135 -0.00648206 0)
(0.993298 -0.00515226 0)
(0.991795 -0.00454068 0)
(0.992559 -0.00342024 0)
(0.992673 -0.0018304 0)
(0.993241 -0.000514688 0)
(0.992221 0.000765688 0)
(0.992186 0.00240215 0)
(0.992311 0.00394832 0)
(0.997675 -0.00247698 0)
(0.998936 0.000810766 0)
(1.00317 -0.00035871 0)
(1.00369 -0.0102689 0)
(0.993784 -0.0140791 0)
(0.988737 -0.00869577 0)
(0.991527 -0.00412247 0)
(0.994014 -0.0032912 0)
(0.993999 -0.00329481 0)
(0.994795 -0.0049784 0)
(0.996668 -0.00687449 0)
(0.995283 -0.00636485 0)
(0.993435 -0.00496951 0)
(0.991917 -0.00431046 0)
(0.992777 -0.00333295 0)
(0.992945 -0.00178466 0)
(0.993488 -0.000402114 0)
(0.99253 0.000813047 0)
(0.992558 0.00230589 0)
(0.992708 0.00374594 0)
(0.997777 -0.00229258 0)
(0.99907 0.000497988 0)
(1.00283 -0.000528578 0)
(1.00328 -0.00984861 0)
(0.994061 -0.0133541 0)
(0.989429 -0.00855228 0)
(0.99198 -0.00436617 0)
(0.994192 -0.00360641 0)
(0.993963 -0.00350849 0)
(0.994591 -0.00493396 0)
(0.99657 -0.00667768 0)
(0.995433 -0.00625741 0)
(0.993586 -0.00480223 0)
(0.99203 -0.00406184 0)
(0.992979 -0.00322514 0)
(0.993225 -0.00175955 0)
(0.993741 -0.000314467 0)
(0.992816 0.000881455 0)
(0.992894 0.00223424 0)
(0.993083 0.00353439 0)
(0.997876 -0.00211179 0)
(0.999201 0.000199814 0)
(1.00251 -0.000687829 0)
(1.00289 -0.00943352 0)
(0.994334 -0.012664 0)
(0.990094 -0.00838095 0)
(0.992422 -0.00459041 0)
(0.994377 -0.00390075 0)
(0.993948 -0.00371201 0)
(0.994406 -0.00488322 0)
(0.996466 -0.00647172 0)
(0.995584 -0.00616583 0)
(0.993755 -0.00466048 0)
(0.992142 -0.00380602 0)
(0.993158 -0.00308459 0)
(0.993509 -0.0017547 0)
(0.99401 -0.00026465 0)
(0.993089 0.000950432 0)
(0.993193 0.00219784 0)
(0.99342 0.00334942 0)
(0.997976 -0.00193775 0)
(0.999329 -8.24141e-05 0)
(1.0022 -0.000836448 0)
(1.00252 -0.0090286 0)
(0.9946 -0.0120091 0)
(0.990735 -0.00818666 0)
(0.992848 -0.00479737 0)
(0.994569 -0.00418606 0)
(0.993954 -0.00389953 0)
(0.99424 -0.00482066 0)
(0.996356 -0.0062574 0)
(0.995731 -0.00608215 0)
(0.993941 -0.00455329 0)
(0.992253 -0.00355888 0)
(0.993307 -0.0029141 0)
(0.993787 -0.0017574 0)
(0.994297 -0.000259039 0)
(0.993363 0.000998001 0)
(0.993463 0.00217595 0)
(0.993711 0.00320977 0)
(0.998078 -0.00177069 0)
(0.99945 -0.000346725 0)
(1.00191 -0.000986043 0)
(1.00217 -0.00861224 0)
(0.994862 -0.011401 0)
(0.99135 -0.00798418 0)
(0.993257 -0.00497627 0)
(0.994768 -0.00447098 0)
(0.993983 -0.00407444 0)
(0.994095 -0.004752 0)
(0.996239 -0.00603518 0)
(0.995874 -0.0059943 0)
(0.994157 -0.00447784 0)
(0.992378 -0.00332572 0)
(0.99343 -0.00271361 0)
(0.994044 -0.00174707 0)
(0.994599 -0.000295143 0)
(0.993642 0.00102328 0)
(0.993712 0.00214934 0)
(0.993951 0.0031012 0)
(0.998175 -0.0016128 0)
(0.999571 -0.000589855 0)
(1.00165 -0.00114353 0)
(1.00184 -0.00817582 0)
(0.995122 -0.0108397 0)
(0.991945 -0.00778611 0)
(0.99365 -0.00510842 0)
(0.99497 -0.00473917 0)
(0.994036 -0.00424313 0)
(0.993974 -0.00468369 0)
(0.996114 -0.00580115 0)
(0.996008 -0.00589258 0)
(0.994397 -0.0044328 0)
(0.992524 -0.00312204 0)
(0.993528 -0.00249911 0)
(0.994273 -0.00171889 0)
(0.994913 -0.000376453 0)
(0.993936 0.00101484 0)
(0.993948 0.00212032 0)
(0.994157 0.00298648 0)
(0.99827 -0.00146494 0)
(0.999689 -0.000807952 0)
(1.00141 -0.00131338 0)
(1.00152 -0.0077232 0)
(0.995371 -0.0103128 0)
(0.992523 -0.0075985 0)
(0.994024 -0.00519607 0)
(0.995174 -0.00497317 0)
(0.994118 -0.00441335 0)
(0.993881 -0.00461568 0)
(0.995986 -0.00555187 0)
(0.996125 -0.00576768 0)
(0.994664 -0.00441075 0)
(0.992703 -0.00296061 0)
(0.99361 -0.00228635 0)
(0.994462 -0.00165733 0)
(0.995228 -0.000481401 0)
(0.994253 0.000946833 0)
(0.994171 0.00209918 0)
(0.994333 0.0028566 0)
(0.998362 -0.00133022 0)
(0.999796 -0.000995732 0)
(1.0012 -0.00149667 0)
(1.00122 -0.00725825 0)
(0.995612 -0.00980175 0)
(0.993079 -0.00743152 0)
(0.994382 -0.00525087 0)
(0.995378 -0.00517182 0)
(0.994236 -0.00458383 0)
(0.993824 -0.00454551 0)
(0.995854 -0.00529002 0)
(0.996216 -0.00560827 0)
(0.994944 -0.00439289 0)
(0.992919 -0.00285277 0)
(0.993691 -0.00209086 0)
(0.994616 -0.00156426 0)
(0.995531 -0.000575571 0)
(0.994606 0.000805306 0)
(0.994399 0.00206593 0)
(0.994483 0.00274139 0)
(0.998456 -0.00120912 0)
(0.999899 -0.0011499 0)
(1.00101 -0.00169375 0)
(1.00095 -0.00679841 0)
(0.995834 -0.00929317 0)
(0.993619 -0.00729436 0)
(0.994724 -0.00527146 0)
(0.995581 -0.00532261 0)
(0.994383 -0.00474272 0)
(0.993812 -0.004494 0)
(0.995732 -0.00502672 0)
(0.996281 -0.00541335 0)
(0.995232 -0.00436823 0)
(0.99317 -0.00278777 0)
(0.993781 -0.00193058 0)
(0.994732 -0.00146588 0)
(0.9958 -0.000640878 0)
(0.994985 0.00060744 0)
(0.994656 0.00196896 0)
(0.994609 0.0026562 0)
(0.998544 -0.00110356 0)
(0.999994 -0.00126814 0)
(1.00085 -0.00189819 0)
(1.00071 -0.00636268 0)
(0.99603 -0.00876458 0)
(0.99414 -0.0071834 0)
(0.995064 -0.00528105 0)
(0.995779 -0.00539922 0)
(0.994549 -0.0048739 0)
(0.993849 -0.00447184 0)
(0.995626 -0.00478358 0)
(0.996328 -0.00519036 0)
(0.995514 -0.0043301 0)
(0.993457 -0.00276516 0)
(0.993887 -0.0018052 0)
(0.99483 -0.0013736 0)
(0.99603 -0.000669096 0)
(0.995371 0.000411088 0)
(0.994963 0.00179082 0)
(0.994724 0.0025841 0)
(0.998634 -0.00101404 0)
(1.00007 -0.00135354 0)
(1.00073 -0.00209694 0)
(1.00049 -0.00596615 0)
(0.996211 -0.00820599 0)
(0.994634 -0.00708103 0)
(0.995398 -0.00529025 0)
(0.995973 -0.00540074 0)
(0.994736 -0.00497116 0)
(0.99393 -0.0044757 0)
(0.995551 -0.00457632 0)
(0.99636 -0.0049513 0)
(0.995784 -0.00426865 0)
(0.993776 -0.00277527 0)
(0.99402 -0.0017121 0)
(0.994914 -0.00129207 0)
(0.996224 -0.000683747 0)
(0.99574 0.000244838 0)
(0.995319 0.00155406 0)
(0.994865 0.00247846 0)
(0.998721 -0.000940226 0)
(1.00014 -0.00140719 0)
(1.00061 -0.00228544 0)
(1.00032 -0.00562008 0)
(0.996373 -0.00763092 0)
(0.995107 -0.00695563 0)
(0.995736 -0.00530592 0)
(0.996169 -0.00536093 0)
(0.994922 -0.0050085 0)
(0.994052 -0.00449217 0)
(0.99551 -0.00441032 0)
(0.996386 -0.00472025 0)
(0.996034 -0.00418116 0)
(0.994117 -0.00279691 0)
(0.994179 -0.00164931 0)
(0.994991 -0.00121249 0)
(0.996385 -0.000696195 0)
(0.996081 9.97107e-05 0)
(0.995706 0.00129366 0)
(0.995059 0.00230361 0)
(0.998803 -0.000882184 0)
(1.0002 -0.00143132 0)
(1.00052 -0.0024555 0)
(1.00019 -0.00533 0)
(0.99651 -0.00704975 0)
(0.99553 -0.00678873 0)
(0.996075 -0.00535008 0)
(0.996377 -0.00530641 0)
(0.995117 -0.00496971 0)
(0.994203 -0.00449431 0)
(0.995509 -0.00428594 0)
(0.996413 -0.00450538 0)
(0.996268 -0.00406386 0)
(0.994476 -0.00282129 0)
(0.994379 -0.00161827 0)
(0.995069 -0.00113741 0)
(0.996518 -0.000693202 0)
(0.996388 -2.03594e-05 0)
(0.996106 0.001041 0)
(0.995319 0.00206724 0)
(0.998886 -0.000838709 0)
(1.00025 -0.00142698 0)
(1.00044 -0.00260158 0)
(1.0001 -0.00510496 0)
(0.996638 -0.00648034 0)
(0.995909 -0.00657688 0)
(0.996415 -0.00539728 0)
(0.996603 -0.00525124 0)
(0.995318 -0.0048753 0)
(0.994366 -0.00445989 0)
(0.995537 -0.0041857 0)
(0.996453 -0.00432516 0)
(0.996486 -0.00393976 0)
(0.994843 -0.00283883 0)
(0.994615 -0.0016186 0)
(0.995161 -0.00108841 0)
(0.996628 -0.000682291 0)
(0.996656 -0.000119592 0)
(0.996495 0.000805189 0)
(0.995637 0.00179171 0)
(0.998958 -0.000810158 0)
(1.00028 -0.00140565 0)
(1.00038 -0.00270197 0)
(1.00005 -0.00493035 0)
(0.996764 -0.00594539 0)
(0.996242 -0.00632273 0)
(0.996743 -0.00544029 0)
(0.996852 -0.00524132 0)
(0.995528 -0.00474434 0)
(0.99454 -0.00436078 0)
(0.995588 -0.00406554 0)
(0.996502 -0.00416115 0)
(0.996695 -0.00380448 0)
(0.995216 -0.00283346 0)
(0.994886 -0.0016219 0)
(0.995273 -0.00104763 0)
(0.996725 -0.000668133 0)
(0.996887 -0.000195442 0)
(0.996861 0.0005999 0)
(0.995998 0.00150505 0)
(0.999032 -0.000784975 0)
(1.00029 -0.00138582 0)
(1.00029 -0.00277927 0)
(1.00004 -0.00480823 0)
(0.996893 -0.00544576 0)
(0.996529 -0.00597409 0)
(0.99705 -0.00541709 0)
(0.997127 -0.00527575 0)
(0.995762 -0.00462873 0)
(0.99472 -0.00423986 0)
(0.995648 -0.00395737 0)
(0.996562 -0.00403934 0)
(0.996895 -0.00370163 0)
(0.995588 -0.0028447 0)
(0.995185 -0.00165407 0)
(0.995405 -0.00102689 0)
(0.99681 -0.000664738 0)
(0.997087 -0.000262267 0)
(0.997191 0.000425463 0)
(0.996373 0.00122355 0)
(0.999098 -0.000771343 0)
(1.0003 -0.00134493 0)
(1.00021 -0.00279207 0)
(1.00007 -0.0047467 0)
(0.997046 -0.00506689 0)
(0.996767 -0.00562547 0)
(0.997307 -0.00533598 0)
(0.997409 -0.0052975 0)
(0.996032 -0.00448838 0)
(0.994911 -0.00402957 0)
(0.995712 -0.00377365 0)
(0.996627 -0.00388576 0)
(0.997088 -0.00357782 0)
(0.995963 -0.00283493 0)
(0.995518 -0.00168728 0)
(0.995565 -0.0010094 0)
(0.996891 -0.000651777 0)
(0.99726 -0.000317924 0)
(0.997482 0.000282112 0)
(0.996741 0.000969451 0)
(0.999161 -0.000752963 0)
(1.0003 -0.00135489 0)
(1.00012 -0.00274164 0)
(1.00011 -0.00464121 0)
(0.99721 -0.00469509 0)
(0.996972 -0.005248 0)
(0.997536 -0.00521988 0)
(0.997715 -0.00536557 0)
(0.996355 -0.00446276 0)
(0.995123 -0.00385683 0)
(0.995768 -0.003586 0)
(0.99668 -0.00374884 0)
(0.997258 -0.00346948 0)
(0.996318 -0.00282416 0)
(0.995869 -0.00174066 0)
(0.995753 -0.00101712 0)
(0.996966 -0.000637059 0)
(0.997409 -0.000367322 0)
(0.99774 0.000152316 0)
(0.997088 0.000748223 0)
(0.999212 -0.000741902 0)
(1.0003 -0.0013096 0)
(1.00003 -0.00267909 0)
(1.00017 -0.00459236 0)
(0.997394 -0.00442102 0)
(0.997143 -0.0048557 0)
(0.997684 -0.0049678 0)
(0.997982 -0.00534585 0)
(0.996706 -0.0044792 0)
(0.995375 -0.00371728 0)
(0.995823 -0.00336685 0)
(0.996725 -0.00358622 0)
(0.997421 -0.00336351 0)
(0.996665 -0.00280294 0)
(0.99624 -0.00179614 0)
(0.995982 -0.00104773 0)
(0.997049 -0.000624493 0)
(0.997533 -0.00039672 0)
(0.997969 3.61715e-05 0)
(0.997407 0.00056038 0)
(0.999264 -0.000712393 0)
(1.0003 -0.00137606 0)
(0.999901 -0.00257245 0)
(1.00024 -0.00453326 0)
(0.997625 -0.00420463 0)
(0.99734 -0.00448453 0)
(0.997802 -0.00465407 0)
(0.998219 -0.00524178 0)
(0.997076 -0.00451504 0)
(0.995674 -0.00364117 0)
(0.995886 -0.00314639 0)
(0.996739 -0.00338132 0)
(0.997553 -0.00323843 0)
(0.996986 -0.00277898 0)
(0.996611 -0.00185336 0)
(0.996237 -0.00110052 0)
(0.997142 -0.000633251 0)
(0.997622 -0.00041298 0)
(0.998153 -6.52935e-05 0)
(0.997683 0.000389541 0)
(0.999298 -0.000675192 0)
(1.0003 -0.00141439 0)
(0.99981 -0.00242536 0)
(1.0003 -0.0044476 0)
(0.997864 -0.00405678 0)
(0.997504 -0.00413328 0)
(0.99786 -0.00429727 0)
(0.99839 -0.00503117 0)
(0.997446 -0.00451935 0)
(0.996037 -0.00363787 0)
(0.995996 -0.00295602 0)
(0.996751 -0.0031539 0)
(0.997663 -0.00308316 0)
(0.997291 -0.00274021 0)
(0.996999 -0.00191293 0)
(0.996537 -0.0011659 0)
(0.99728 -0.000659135 0)
(0.997714 -0.00042577 0)
(0.998313 -0.000135032 0)
(0.997936 0.000244535 0)
(0.999337 -0.000640651 0)
(1.00031 -0.00142458 0)
(0.999679 -0.00225862 0)
(1.00034 -0.00423658 0)
(0.998138 -0.0039319 0)
(0.997731 -0.00388205 0)
(0.997921 -0.00399496 0)
(0.99851 -0.00482483 0)
(0.997769 -0.00451983 0)
(0.996422 -0.00372753 0)
(0.996143 -0.00285614 0)
(0.996742 -0.00294811 0)
(0.997718 -0.00291964 0)
(0.997534 -0.00268097 0)
(0.997357 -0.00196994 0)
(0.996847 -0.00124794 0)
(0.997429 -0.000705306 0)
(0.997793 -0.000452886 0)
(0.998427 -0.000191827 0)
(0.998136 0.00011809 0)
(0.999355 -0.000586846 0)
(1.00033 -0.00146592 0)
(0.999601 -0.00209179 0)
(1.00037 -0.00402502 0)
(0.998384 -0.00386996 0)
(0.997923 -0.00375851 0)
(0.997935 -0.00372059 0)
(0.998567 -0.00455253 0)
(0.998053 -0.0043868 0)
(0.996847 -0.00376269 0)
(0.996378 -0.00278847 0)
(0.99677 -0.00273261 0)
(0.997758 -0.00272773 0)
(0.997741 -0.00258413 0)
(0.997695 -0.00199686 0)
(0.99718 -0.00134121 0)
(0.997615 -0.000763659 0)
(0.997884 -0.000489233 0)
(0.998521 -0.000241242 0)
(0.998296 2.13505e-05 0)
(0.999382 -0.000534351 0)
(1.00035 -0.00144259 0)
(0.999496 -0.00191664 0)
(1.00034 -0.00376727 0)