/*--------------------------------*- C++ -*----------------------------------*\
| =========                 |                                                 |
| \\      /  F ield         | OpenFOAM: The Open Source CFD Toolbox           |
|  \\    /   O peration     | Version:  v2012                                 |
|   \\  /    A nd           | Website:  www.openfoam.com                      |
|    \\/     M anipulation  |                                                 |
\*---------------------------------------------------------------------------*/
FoamFile
{
    version     2.0;
    format      ascii;
    class       volScalarField;
    location    "10.6";
    object      p;
}
// * * * * * * * * * * * * * * * * * * * * * * * * * * * * * * * * * * * * * //

dimensions      [0 2 -2 0 0 0 0];


internalField   nonuniform List<scalar> 
9600
(
6.46962e-11
-0.00335022
-0.000941882
0.00371036
-0.00523056
-0.00684394
-0.00244224
-0.00273371
-0.00382143
-0.0038393
-0.00489542
-0.0057366
-0.0066623
-0.00689608
-0.00765384
-0.00948315
-0.0107996
-0.0103625
-0.0109407
-0.0106432
2.61408e-06
-0.00334067
-0.000952577
0.00366969
-0.00519658
-0.00685085
-0.00245038
-0.00271605
-0.00385018
-0.00382602
-0.00488179
-0.00574252
-0.00665714
-0.00693336
-0.00764589
-0.00951065
-0.0107759
-0.0103663
-0.0109267
-0.0107178
7.33015e-06
-0.00332944
-0.000973239
0.00361812
-0.00513639
-0.00686109
-0.00244707
-0.00269499
-0.00388223
-0.00380582
-0.00487031
-0.00575936
-0.00665759
-0.00698199
-0.00763192
-0.00954095
-0.0107265
-0.0103868
-0.0109165
-0.0108175
1.15618e-05
-0.00331863
-0.00099833
0.00355676
-0.00508696
-0.00685021
-0.00243174
-0.00268337
-0.0039149
-0.00379891
-0.00486554
-0.0057845
-0.00666604
-0.00702976
-0.00762157
-0.00955877
-0.0106777
-0.0104174
-0.0109167
-0.010926
1.48871e-05
-0.00330776
-0.00102805
0.0034811
-0.00504936
-0.00680957
-0.00240871
-0.00268497
-0.00395223
-0.00380606
-0.00486077
-0.0058165
-0.00667903
-0.00707745
-0.00761237
-0.00956879
-0.0106361
-0.010445
-0.0109327
-0.0110315
1.74328e-05
-0.00329729
-0.00106176
0.0033893
-0.00501458
-0.00673713
-0.00238448
-0.00270174
-0.0039957
-0.00382146
-0.00485305
-0.00585397
-0.00669393
-0.00712627
-0.00760114
-0.00957772
-0.0105962
-0.0104664
-0.0109669
-0.0111219
1.9084e-05
-0.00328753
-0.0010977
0.00328205
-0.00497802
-0.00663973
-0.00236793
-0.00273252
-0.0040443
-0.00384045
-0.00484322
-0.00589332
-0.00670832
-0.00717596
-0.00758915
-0.00958568
-0.0105567
-0.0104845
-0.0110131
-0.0111958
1.96958e-05
-0.00327834
-0.00113432
0.00316085
-0.00493867
-0.0065291
-0.00236454
-0.00277383
-0.00409651
-0.00386092
-0.00483185
-0.0059314
-0.00672051
-0.00722716
-0.0075775
-0.00959104
-0.0105227
-0.0104976
-0.0110662
-0.0112626
1.93356e-05
-0.00326905
-0.00117081
0.00302922
-0.00489684
-0.00641515
-0.0023733
-0.00282128
-0.00415147
-0.00388177
-0.00481913
-0.0059677
-0.00673053
-0.00728039
-0.00756588
-0.00959377
-0.010498
-0.010503
-0.0111276
-0.0113305
1.82853e-05
-0.00325915
-0.00120713
0.00288888
-0.00485338
-0.00630324
-0.00239012
-0.00287181
-0.00420898
-0.00390252
-0.00480564
-0.00600349
-0.00673948
-0.0073351
-0.00755478
-0.00959374
-0.0104836
-0.0105011
-0.0111988
-0.0114024
1.68851e-05
-0.00324843
-0.00124381
0.00274143
-0.00480891
-0.00619514
-0.00241057
-0.00292381
-0.00426915
-0.00392324
-0.00479213
-0.00604043
-0.00674868
-0.00739015
-0.00754562
-0.00958964
-0.0104805
-0.0104943
-0.0112779
-0.0114798
1.53901e-05
-0.00323698
-0.00128156
0.002588
-0.00476347
-0.00609093
-0.00243167
-0.00297646
-0.00433229
-0.00394418
-0.00477904
-0.00608005
-0.00675915
-0.00744412
-0.00753979
-0.00957994
-0.0104897
-0.0104842
-0.0113606
-0.0115656
1.39232e-05
-0.00322516
-0.00132096
0.00242948
-0.00471677
-0.00599021
-0.00245206
-0.00302926
-0.0043987
-0.00396556
-0.00476659
-0.00612339
-0.00677146
-0.0074956
-0.00753856
-0.00956361
-0.0105115
-0.0104729
-0.0114421
-0.0116624
1.24991e-05
-0.00321334
-0.00136236
0.00226656
-0.00466842
-0.00589264
-0.00247145
-0.0030818
-0.00446866
-0.00398756
-0.00475485
-0.00617077
-0.00678607
-0.0075434
-0.00754307
-0.00954034
-0.0105451
-0.0104631
-0.0115177
-0.0117711
1.10588e-05
-0.00320179
-0.00140589
0.00209988
-0.00461819
-0.00579807
-0.00248962
-0.00313374
-0.00454237
-0.00401034
-0.00474368
-0.00622194
-0.00680351
-0.00758644
-0.00755415
-0.0095108
-0.0105888
-0.010458
-0.0115829
-0.011891
9.49538e-06
-0.00319066
-0.00145161
0.00192994
-0.00456603
-0.00570653
-0.00250765
-0.00318471
-0.00462007
-0.00403403
-0.00473284
-0.00627642
-0.00682426
-0.00762403
-0.00757227
-0.00947628
-0.0106404
-0.0104605
-0.0116341
-0.0120201
7.66691e-06
-0.00318
-0.0014995
0.00175719
-0.004512
-0.00561812
-0.00252579
-0.00323427
-0.00470186
-0.00405882
-0.00472212
-0.00633353
-0.00684864
-0.0076561
-0.00759731
-0.00943827
-0.0106975
-0.010473
-0.0116692
-0.0121557
5.39653e-06
-0.00316986
-0.00154957
0.00158197
-0.00445624
-0.00553289
-0.00254473
-0.00328191
-0.00478771
-0.00408501
-0.00471141
-0.00639256
-0.0068769
-0.00768305
-0.00762842
-0.0093982
-0.0107583
-0.0104973
-0.0116868
-0.0122945
2.48522e-06
-0.0031602
-0.00160184
0.00140464
-0.004399
-0.00545086
-0.0025651
-0.00332712
-0.00487755
-0.0041129
-0.00470053
-0.00645301
-0.00690923
-0.00770544
-0.00766454
-0.00935728
-0.0108214
-0.0105347
-0.0116864
-0.0124318
-1.26939e-06
-0.00315094
-0.00165639
0.0012256
-0.00434056
-0.00537196
-0.00258749
-0.0033694
-0.00497118
-0.004143
-0.00468903
-0.00651462
-0.00694567
-0.00772364
-0.00770536
-0.00931651
-0.0108852
-0.0105864
-0.0116678
-0.0125619
-6.07498e-06
-0.00314191
-0.00171336
0.00104527
-0.00428131
-0.00529602
-0.00261248
-0.00340837
-0.00506816
-0.00417608
-0.0046763
-0.00657732
-0.00698609
-0.00773798
-0.00775123
-0.00927621
-0.0109475
-0.010654
-0.0116321
-0.0126781
-1.21592e-05
-0.0031329
-0.00177294
0.000864039
-0.00422157
-0.00522287
-0.00264062
-0.00344369
-0.00516797
-0.00421299
-0.00466173
-0.00664126
-0.0070304
-0.0077484
-0.00780262
-0.00923654
-0.0110058
-0.0107398
-0.0115817
-0.0127722
-1.97819e-05
-0.00312364
-0.00183533
0.000682312
-0.00416174
-0.00515229
-0.00267241
-0.00347521
-0.00526993
-0.00425476
-0.00464453
-0.00670668
-0.00707891
-0.00775422
-0.0078603
-0.0091985
-0.0110569
-0.0108457
-0.0115219
-0.0128338
-2.92446e-05
-0.00311383
-0.0019008
0.000500506
-0.00410223
-0.00508407
-0.00270831
-0.00350301
-0.0053731
-0.00430282
-0.00462376
-0.00677337
-0.00713247
-0.00775445
-0.00792504
-0.00916408
-0.0110957
-0.0109724
-0.0114609
-0.0128528
-4.0886e-05
-0.00310315
-0.00196962
0.00031903
-0.00404347
-0.00501803
-0.00274872
-0.00352727
-0.0054763
-0.00435875
-0.00459869
-0.00684085
-0.00719243
-0.00774769
-0.00799674
-0.00913659
-0.0111167
-0.0111173
-0.0114109
-0.0128219
-5.50874e-05
-0.00309115
-0.00204209
0.0001383
-0.00398596
-0.00495413
-0.00279377
-0.00354847
-0.00557791
-0.00442413
-0.00456936
-0.0069079
-0.00726039
-0.00773267
-0.00807419
-0.00912083
-0.0111147
-0.0112733
-0.0113864
-0.0127413
-7.22811e-05
-0.00307738
-0.00211849
-4.12979e-05
-0.00393017
-0.0048923
-0.00284343
-0.00356731
-0.00567621
-0.00450055
-0.00453611
-0.00697249
-0.00733843
-0.00770898
-0.00815459
-0.00912257
-0.0110876
-0.0114295
-0.0114012
-0.0126229
-9.29427e-05
-0.0030614
-0.00219907
-0.000219416
-0.0038765
-0.00483261
-0.0028975
-0.00358475
-0.00576941
-0.0045889
-0.00449974
-0.00703235
-0.00742894
-0.00767696
-0.00823317
-0.00914769
-0.0110382
-0.0115715
-0.0114618
-0.0124877
-0.000117603
-0.00304272
-0.00228405
-0.0003958
-0.00382521
-0.00477534
-0.0029555
-0.00360196
-0.00585592
-0.00468953
-0.00446195
-0.0070847
-0.00753408
-0.00763866
-0.00830362
-0.00920043
-0.0109744
-0.0116835
-0.0115634
-0.0123633
-0.000146823
-0.00302082
-0.00237358
-0.000570257
-0.00377634
-0.004721
-0.00301674
-0.00362014
-0.00593474
-0.00480257
-0.00442485
-0.00712628
-0.00765523
-0.00759792
-0.00835907
-0.00928191
-0.0109072
-0.0117526
-0.0116899
-0.0122787
-0.000181207
-0.00299516
-0.00246774
-0.000742696
-0.00372985
-0.00467036
-0.00308018
-0.00364041
-0.00600531
-0.00492757
-0.00439097
-0.00715404
-0.00779259
-0.00755977
-0.00839297
-0.00938945
-0.0108497
-0.0117725
-0.0118198
-0.0122519
-0.000221394
-0.00296529
-0.00256636
-0.000913237
-0.00368555
-0.00462447
-0.00314448
-0.00366331
-0.00606745
-0.00506336
-0.00436318
-0.00716576
-0.00794549
-0.00753057
-0.00839955
-0.00951641
-0.0108153
-0.0117468
-0.0119299
-0.012281
-0.000268054
-0.00293073
-0.00266922
-0.00108215
-0.00364278
-0.00458472
-0.0032089
-0.00368868
-0.00612161
-0.00520809
-0.00434424
-0.0071598
-0.00811224
-0.00751803
-0.00837471
-0.0096528
-0.0108154
-0.0116867
-0.0119986
-0.0123449
-0.000321871
-0.0028911
-0.00277582
-0.00124996
-0.00360064
-0.00455235
-0.00327354
-0.00371621
-0.00616841
-0.00535989
-0.00433673
-0.00713487
-0.00828959
-0.0075302
-0.00831757
-0.00978636
-0.0108577
-0.011608
-0.0120136
-0.012416
-0.000383463
-0.00284618
-0.00288528
-0.00141749
-0.00355806
-0.00452813
-0.00333897
-0.00374509
-0.00620867
-0.00551753
-0.00434283
-0.00709037
-0.00847269
-0.0075743
-0.00823119
-0.00990323
-0.0109444
-0.0115278
-0.0119743
-0.012468
-0.00045343
-0.00279603
-0.00299635
-0.00158588
-0.00351373
-0.00451222
-0.0034068
-0.00377406
-0.00624306
-0.00567996
-0.00436461
-0.00702695
-0.00865534
-0.0076562
-0.00812252
-0.00998814
-0.0110733
-0.0114635
-0.0118867
-0.0124827
-0.000532301
-0.00274088
-0.00310733
-0.00175653
-0.00346662
-0.00450401
-0.00347942
-0.00380154
-0.00627103
-0.00584663
-0.00440471
-0.00694594
-0.00883008
-0.00778058
-0.00800302
-0.0100253
-0.0112363
-0.0114353
-0.0117588
-0.0124478
-0.000620547
-0.00268135
-0.00321586
-0.0019311
-0.00341669
-0.00450202
-0.00355965
-0.00382651
-0.00629094
-0.00601771
-0.00446629
-0.00684892
-0.00898838
-0.00794959
-0.00788862
-0.0100014
-0.0114155
-0.0114643
-0.0116062
-0.0123514
-0.000718468
-0.00261859
-0.00331867
-0.00211149
-0.00336491
-0.00450325
-0.00365072
-0.00384942
-0.00630049
-0.00619285
-0.00455295
-0.00673846
-0.00912114
-0.00816109
-0.00779766
-0.00991103
-0.0115845
-0.0115643
-0.0114569
-0.0121846
-0.000826065
-0.00255436
-0.00341182
-0.00229917
-0.00331347
-0.00450402
-0.00375562
-0.00387205
-0.00629636
-0.00637048
-0.00466824
-0.0066189
-0.00921929
-0.00840813
-0.0077482
-0.00976116
-0.0117134
-0.01173
-0.0113497
-0.0119561
-0.000943242
-0.00249085
-0.00349105
-0.00249507
-0.00326583
-0.00449974
-0.00387626
-0.00389789
-0.00627484
-0.00654701
-0.00481584
-0.00649696
-0.0092743
-0.00867937
-0.00775582
-0.00956939
-0.0117754
-0.0119361
-0.0113199
-0.0116984
-0.00106958
-0.00243041
-0.00355264
-0.00269936
-0.00322651
-0.00448544
-0.00401228
-0.00393235
-0.00623304
-0.00671737
-0.00499918
-0.00638204
-0.00927944
-0.00896041
-0.00783154
-0.00935839
-0.0117529
-0.0121497
-0.0113808
-0.0114571
-0.00120428
-0.00237569
-0.00359382
-0.00291083
-0.00320075
-0.00445709
-0.00416074
-0.00398254
-0.00617099
-0.00687526
-0.00521843
-0.00628504
-0.00923158
-0.00923486
-0.00797943
-0.00915324
-0.0116412
-0.0123379
-0.0115209
-0.0112771
-0.00134643
-0.00232933
-0.00361299
-0.00312694
-0.00319432
-0.00441202
-0.00431691
-0.00405727
-0.0060929
-0.00701139
-0.00546888
-0.00621804
-0.00913339
-0.00948445
-0.00819399
-0.00898118
-0.0114483
-0.0124706
-0.0117159
-0.0111845
-0.0014947
-0.00229378
-0.00360979
-0.00334375
-0.00321289
-0.00435028
-0.00447321
-0.00416405
-0.00600569
-0.00711542
-0.00574135
-0.00619279
-0.0089945
-0.00969059
-0.00845883
-0.00886775
-0.0111957
-0.0125227
-0.0119367
-0.0111844
-0.00164738
-0.00227125
-0.00358573
-0.00355547
-0.00326186
-0.00427467
-0.00461845
-0.00430622
-0.0059204
-0.00718032
-0.00602383
-0.00621732
-0.00883004
-0.00983861
-0.00875104
-0.00882924
-0.0109149
-0.0124794
-0.0121505
-0.011269
-0.00180267
-0.00226377
-0.00354386
-0.00375562
-0.00334493
-0.00419108
-0.00474043
-0.00448035
-0.00585247
-0.00720508
-0.00630092
-0.00629346
-0.00865781
-0.00992204
-0.00904665
-0.00886638
-0.010641
-0.0123445
-0.0123216
-0.0114205
-0.00195883
-0.00227347
-0.00348838
-0.00393779
-0.00346247
-0.00410971
-0.00483105
-0.00467823
-0.00581621
-0.00719561
-0.00655699
-0.00641531
-0.00849556
-0.00994278
-0.0093242
-0.00896866
-0.0104039
-0.012141
-0.0124201
-0.0116085
-0.00211192
-0.00230197
-0.0034252
-0.0040951
-0.00361198
-0.00404416
-0.00488645
-0.00488541
-0.0058196
-0.00716225
-0.00678096
-0.00657159
-0.00835802
-0.00990926
-0.00956604
-0.00912009
-0.0102222
-0.0118995
-0.0124326
-0.0117931
-0.00226002
-0.0023501
-0.00336137
-0.00422128
-0.00378835
-0.00400882
-0.00490916
-0.00508558
-0.00586212
-0.00711852
-0.00696733
-0.00674892
-0.00825498
-0.00983512
-0.00975935
-0.00930154
-0.0101035
-0.0116495
-0.0123673
-0.0119362
-0.00240201
-0.00241809
-0.00330399
-0.00431271
-0.00398324
-0.00401365
-0.00490549
-0.00526548
-0.00593811
-0.00707808
-0.00711586
-0.0069334
-0.00818974
-0.00973665
-0.00989867
-0.00949299
-0.0100456
-0.0114141
-0.0122464
-0.0120174
-0.00253675
-0.00250446
-0.0032601
-0.00436988
-0.00418553
-0.00406313
-0.00488655
-0.00541576
-0.0060381
-0.00705123
-0.00723139
-0.00711393
-0.0081596
-0.00962844
-0.00998705
-0.00967656
-0.0100384
-0.0112074
-0.0120922
-0.0120386
-0.00266389
-0.00260605
-0.00323481
-0.00439502
-0.00438385
-0.00415875
-0.00486947
-0.00553339
-0.00614851
-0.00704178
-0.00731934
-0.00728036
-0.0081573
-0.00952076
-0.0100317
-0.00984078
-0.010069
-0.0110352
-0.0119194
-0.0120109
-0.00278344
-0.00271974
-0.00323173
-0.0043937
-0.00456591
-0.00429588
-0.00487287
-0.0056218
-0.00625874
-0.00705207
-0.0073883
-0.00742746
-0.0081763
-0.00942259
-0.01004
-0.00997582
-0.0101239
-0.0108982
-0.0117369
-0.0119431
-0.00288459
-0.00284107
-0.00325244
-0.00437659
-0.00472316
-0.00446504
-0.00490657
-0.00568641
-0.00635878
-0.00707753
-0.0074446
-0.00755373
-0.00821078
-0.00934193
-0.0100232
-0.0100767
-0.01019
-0.010799
-0.0115564
-0.0118424
-0.0029917
-0.00296737
-0.00329616
-0.00435296
-0.00485252
-0.00465252
-0.00497407
-0.00573694
-0.00644393
-0.00711263
-0.00749121
-0.0076579
-0.00825043
-0.00927747
-0.00999302
-0.0101463
-0.0102538
-0.0107337
-0.0113906
-0.0117155
-0.00309329
-0.00310056
-0.00336342
-0.00433019
-0.00495337
-0.00484673
-0.00507405
-0.00578241
-0.0065144
-0.00715516
-0.00753421
-0.00774245
-0.00828894
-0.00922318
-0.00995465
-0.0101935
-0.0103082
-0.0106892
-0.0112445
-0.0115713
-0.00318638
-0.00321283
-0.00344854
-0.00433381
-0.00504687
-0.00504269
-0.00519538
-0.00582671
-0.00656689
-0.00719697
-0.00757533
-0.00781085
-0.00832335
-0.00917728
-0.0099103
-0.0102247
-0.0103571
-0.0106591
-0.0111204
-0.0114239
-0.00328096
-0.00333724
-0.00355048
-0.00435328
-0.00512264
-0.00522387
-0.00533178
-0.00587628
-0.00660556
-0.00723596
-0.00761854
-0.00786913
-0.00834959
-0.00913544
-0.00985795
-0.0102346
-0.0103986
-0.0106404
-0.0110146
-0.0112805
-0.00337296
-0.00345094
-0.00367001
-0.00439211
-0.00518275
-0.00538644
-0.00547885
-0.00593657
-0.0066357
-0.00727072
-0.00766463
-0.00792262
-0.00836691
-0.0090925
-0.00980127
-0.0102244
-0.0104296
-0.0106361
-0.0109282
-0.0111463
-0.00346808
-0.00356816
-0.00379428
-0.00444221
-0.00523151
-0.00552891
-0.00563053
-0.00601003
-0.00666282
-0.00730186
-0.00771425
-0.00797772
-0.00838302
-0.00904655
-0.00974037
-0.0102007
-0.0104453
-0.01064
-0.0108626
-0.0110247
-0.00357135
-0.00368766
-0.00391906
-0.00450135
-0.00527514
-0.00565444
-0.0057837
-0.00609757
-0.00669106
-0.00732541
-0.00775937
-0.00803175
-0.00840158
-0.00899829
-0.00966595
-0.0101607
-0.0104428
-0.0106409
-0.0108171
-0.0109196
-0.00367903
-0.00381522
-0.00404565
-0.00456942
-0.00531852
-0.00576469
-0.00593263
-0.00619485
-0.00672188
-0.00733751
-0.00779312
-0.00808221
-0.00842352
-0.00895489
-0.00957969
-0.0100993
-0.0104221
-0.0106313
-0.0107857
-0.0108378
-0.0037837
-0.00392113
-0.00417907
-0.00466692
-0.00537048
-0.00586086
-0.00607295
-0.00629865
-0.00675806
-0.00734076
-0.00781255
-0.00812667
-0.00844977
-0.00892361
-0.00949619
-0.0100172
-0.0103787
-0.0106049
-0.0107522
-0.0107716
-0.00389443
-0.00403759
-0.00431231
-0.0047723
-0.00543046
-0.00594509
-0.00620061
-0.00640515
-0.00679976
-0.00733846
-0.00781464
-0.00815569
-0.00847253
-0.00890013
-0.00942393
-0.00992866
-0.0103155
-0.0105629
-0.0107093
-0.0107131
-0.0040123
-0.0041561
-0.00444315
-0.00488359
-0.00549709
-0.00601879
-0.0063118
-0.00651054
-0.0068503
-0.00733715
-0.00780547
-0.00816892
-0.00848682
-0.00887516
-0.0093541
-0.00983884
-0.010238
-0.0105069
-0.0106569
-0.0106562
-0.00413626
-0.00428115
-0.0045709
-0.00499733
-0.00557081
-0.00608705
-0.00640994
-0.00661267
-0.00690891
-0.00734049
-0.00778858
-0.0081658
-0.00848975
-0.00884811
-0.00927925
-0.00973949
-0.0101448
-0.0104336
-0.0105929
-0.0105938
-0.00426304
-0.00440283
-0.00469864
-0.00511656
-0.00565407
-0.00615501
-0.00649753
-0.00670943
-0.00697121
-0.00734695
-0.0077654
-0.00814534
-0.00847455
-0.00881778
-0.00920566
-0.00963046
-0.0100349
-0.0103398
-0.010512
-0.0105181
-0.00439604
-0.00453139
-0.00482532
-0.00523634
-0.00574664
-0.00622742
-0.00657544
-0.00679401
-0.00703171
-0.00735539
-0.00773698
-0.00810992
-0.00843534
-0.00876901
-0.00913009
-0.00951322
-0.00990413
-0.0102227
-0.0104112
-0.0104286
-0.00453574
-0.0046703
-0.0049524
-0.0053563
-0.00584584
-0.00630338
-0.00664621
-0.00686593
-0.00708518
-0.00736536
-0.00770598
-0.0080633
-0.0083789
-0.00869475
-0.00904092
-0.00939249
-0.00975393
-0.0100745
-0.0102774
-0.0103119
-0.00467671
-0.00480459
-0.00508391
-0.00548052
-0.00595119
-0.00638372
-0.00671506
-0.00693169
-0.00713282
-0.00737567
-0.0076738
-0.00800206
-0.00830519
-0.00859596
-0.00892196
-0.00925706
-0.00958755
-0.00989736
-0.0101074
-0.0101553
-0.004824
-0.00494951
-0.00521929
-0.00560304
-0.00605777
-0.00646842
-0.00678426
-0.00699581
-0.00717951
-0.0073835
-0.00763781
-0.0079237
-0.00820132
-0.00846567
-0.00876318
-0.00908521
-0.00939266
-0.00968716
-0.00990233
-0.0099626
-0.00497998
-0.00510253
-0.00535932
-0.00572637
-0.00616446
-0.00655441
-0.00685651
-0.00706087
-0.00722638
-0.00739407
-0.00759871
-0.00782553
-0.00805774
-0.00828885
-0.0085471
-0.00885115
-0.00914904
-0.00943253
-0.00965494
-0.00973587
-0.00514066
-0.00525936
-0.00550847
-0.00585709
-0.00627101
-0.00663479
-0.0069289
-0.00713884
-0.0072993
-0.00743266
-0.00757002
-0.0077062
-0.00785658
-0.00802129
-0.00820201
-0.00843013
-0.00868127
-0.0089519
-0.00923284
-0.00944429
-0.00530592
-0.00542334
-0.00566629
-0.00599558
-0.00637827
-0.0067069
-0.00698076
-0.00722359
-0.00744877
-0.00761943
-0.00769824
-0.00771645
-0.00775714
-0.007844
-0.00793157
-0.00799325
-0.0079846
-0.00787783
-0.00771314
-0.00757266
-0.0054854
-0.00559023
-0.0058177
-0.00612677
-0.00648832
-0.00677746
-0.00698229
-0.0071345
-0.00727429
-0.00740621
-0.00753573
-0.00763958
-0.00771354
-0.00775781
-0.00775547
-0.00770873
-0.00762669
-0.00754163
-0.00750007
-0.00756398
-0.00572702
-0.00584312
-0.00597131
-0.0061621
-0.00644118
-0.00670723
-0.00693246
-0.00710261
-0.00725143
-0.00740587
-0.00756239
-0.00768188
-0.00776532
-0.00780232
-0.00778119
-0.00770994
-0.00758244
-0.00740438
-0.00721128
-0.00709533
-0.00580217
-0.0058505
-0.00599314
-0.00620659
-0.00647841
-0.00672821
-0.00694733
-0.00711681
-0.00725386
-0.00738259
-0.00750254
-0.00756772
-0.00759721
-0.00762671
-0.0076705
-0.00778458
-0.00800993
-0.00834363
-0.00873585
-0.00909846
-0.00601862
-0.00609377
-0.00615506
-0.00626919
-0.00647561
-0.00670424
-0.00692839
-0.0071057
-0.00726095
-0.0073975
-0.00752356
-0.0076227
-0.0076606
-0.00765546
-0.00759769
-0.0074735
-0.00729522
-0.00709473
-0.00693351
-0.00689221
-0.00614233
-0.00619377
-0.00622178
-0.00629883
-0.006476
-0.00669095
-0.00691727
-0.00710676
-0.0072788
-0.0074346
-0.0075616
-0.00765568
-0.00768194
-0.00763991
-0.0075553
-0.00744444
-0.00734608
-0.00729334
-0.00732044
-0.00747986
-0.0103111
-0.0128763
-0.0178424
-0.0213723
-0.0214736
-0.0198259
-0.0179894
-0.0163947
-0.0152123
-0.0145529
-0.0143084
-0.0142342
-0.0141358
-0.013849
-0.0133163
-0.0127545
-0.0123914
-0.012159
-0.0118916
-0.011592
-0.011298
-0.0109669
-0.0105714
-0.0101646
-0.00980379
-0.00946488
-0.00911682
-0.00881352
-0.00857676
-0.00832695
-0.00802227
-0.00773604
-0.00752721
-0.00734062
-0.00710449
-0.00684984
-0.00667289
-0.00657257
-0.0064424
-0.00622654
-0.00598142
-0.00572764
-0.00546431
-0.00517632
-0.00486797
-0.00457066
-0.00426255
-0.00390759
-0.00358345
-0.00335677
-0.0031868
-0.00299007
-0.00273979
-0.00241922
-0.00203586
-0.00165843
-0.00133343
-0.00104416
-0.000744999
-0.00042456
-7.79045e-05
0.000270629
0.000622246
0.001011
0.00138993
0.00176297
0.00215728
0.00258288
0.00299031
0.00340334
0.00383208
0.00426364
0.00472373
0.00521255
0.00571565
0.00620173
0.00670113
0.00720322
0.00773616
0.00823975
0.00875205
0.00926673
0.0098287
0.0104076
0.0110054
0.011591
0.0121567
0.0127503
0.0133449
0.0140004
0.0146082
0.0152746
0.0159508
0.0166105
0.017321
0.0180295
0.0187473
0.0195469
0.0203762
0.0211452
-0.0105007
-0.0129361
-0.0177346
-0.0212344
-0.0213988
-0.0197902
-0.0179656
-0.0163761
-0.0151971
-0.0145403
-0.0142982
-0.0142263
-0.01413
-0.0138449
-0.0133129
-0.0127513
-0.0123883
-0.0121564
-0.0118892
-0.0115897
-0.011296
-0.0109651
-0.0105697
-0.0101628
-0.00980211
-0.00946331
-0.00911528
-0.00881196
-0.00857531
-0.00832565
-0.00802098
-0.0077347
-0.00752593
-0.00733948
-0.00710343
-0.00684875
-0.00667177
-0.00657155
-0.00644153
-0.00622571
-0.0059806
-0.00572685
-0.00546358
-0.00517565
-0.00486733
-0.00457007
-0.00426202
-0.00390708
-0.0035829
-0.00335623
-0.00318632
-0.00298966
-0.00273942
-0.00241888
-0.00203552
-0.00165808
-0.00133308
-0.00104384
-0.000744704
-0.000424285
-7.76391e-05
0.000270892
0.000622488
0.00101123
0.00139017
0.0017632
0.00215749
0.00258309
0.00299052
0.00340353
0.00383227
0.00426382
0.00472391
0.00521272
0.00571583
0.0062019
0.00670129
0.00720337
0.00773632
0.0082399
0.0087522
0.00926687
0.00982883
0.0104077
0.0110055
0.0115911
0.0121568
0.0127504
0.013345
0.0140005
0.0146083
0.0152747
0.0159509
0.0166105
0.0173211
0.0180296
0.0187474
0.019547
0.0203764
0.0211454
-0.0107971
-0.013045
-0.0175408
-0.0209706
-0.0212629
-0.0197423
-0.0179434
-0.0163591
-0.0151825
-0.0145278
-0.014287
-0.0142159
-0.014121
-0.013838
-0.013308
-0.0127475
-0.0123852
-0.0121538
-0.0118869
-0.0115876
-0.0112941
-0.0109635
-0.0105681
-0.0101612
-0.0098006
-0.00946192
-0.00911389
-0.00881057
-0.00857406
-0.00832452
-0.00801983
-0.0077335
-0.0075248
-0.00733848
-0.00710249
-0.00684775
-0.00667077
-0.00657069
-0.00644082
-0.00622502
-0.00597991
-0.00572617
-0.00546293
-0.00517506
-0.00486676
-0.00456954
-0.00426155
-0.0039066
-0.00358236
-0.00335572
-0.00318591
-0.00298933
-0.00273914
-0.00241861
-0.00203521
-0.00165775
-0.00133276
-0.00104356
-0.000744455
-0.000424053
-7.74105e-05
0.000271122
0.000622691
0.00101144
0.00139037
0.00176339
0.00215766
0.00258327
0.00299071
0.0034037
0.00383244
0.00426398
0.00472406
0.00521287
0.00571598
0.00620204
0.00670143
0.0072035
0.00773645
0.00824004
0.00875232
0.00926698
0.00982893
0.0104078
0.0110056
0.0115912
0.0121569
0.0127505
0.0133451
0.0140006
0.0146084
0.0152748
0.015951
0.0166106
0.0173212
0.0180297
0.0187474
0.0195471
0.0203765
0.0211456
-0.0110935
-0.01314
-0.0172795
-0.0206198
-0.0210684
-0.0196743
-0.0179138
-0.0163369
-0.0151643
-0.0145137
-0.0142744
-0.0142021
-0.014106
-0.0138244
-0.0132981
-0.0127413
-0.0123809
-0.01215
-0.0118833
-0.0115846
-0.0112919
-0.0109616
-0.0105663
-0.0101594
-0.00979893
-0.00946051
-0.00911257
-0.00880922
-0.00857277
-0.00832337
-0.00801872
-0.00773234
-0.00752363
-0.00733738
-0.00710146
-0.00684671
-0.00666972
-0.00656977
-0.00644007
-0.00622434
-0.00597922
-0.00572545
-0.00546222
-0.00517441
-0.00486615
-0.00456898
-0.00426105
-0.00390604
-0.00358175
-0.00335516
-0.00318548
-0.00298901
-0.00273888
-0.00241834
-0.00203487
-0.00165737
-0.00133241
-0.00104327
-0.000744198
-0.000423818
-7.71764e-05
0.00027136
0.000622896
0.00101165
0.00139059
0.00176357
0.00215784
0.00258346
0.00299089
0.00340387
0.00383261
0.00426413
0.0047242
0.00521302
0.00571614
0.00620219
0.00670157
0.00720363
0.0077366
0.00824018
0.00875244
0.00926709
0.00982904
0.0104079
0.0110057
0.0115914
0.012157
0.0127506
0.0133452
0.0140007
0.0146085
0.0152749
0.0159511
0.0166107
0.0173213
0.0180298
0.0187475
0.0195472
0.0203766
0.021146
-0.0113631
-0.0132153
-0.0169987
-0.0202434
-0.0208509
-0.019597
-0.0178807
-0.0163107
-0.0151425
-0.0144974
-0.0142601
-0.0141846
-0.0140838
-0.0138022
-0.0132819
-0.0127317
-0.0123744
-0.0121436
-0.0118771
-0.0115797
-0.0112884
-0.0109591
-0.010564
-0.0101572
-0.00979687
-0.00945891
-0.00911136
-0.00880799
-0.0085714
-0.00832209
-0.00801767
-0.0077313
-0.00752237
-0.00733601
-0.00710024
-0.00684561
-0.00666858
-0.00656863
-0.00643913
-0.00622357
-0.00597849
-0.00572463
-0.00546136
-0.00517363
-0.00486544
-0.00456833
-0.00426041
-0.00390536
-0.003581
-0.00335448
-0.00318496
-0.00298864
-0.00273859
-0.00241803
-0.00203447
-0.00165693
-0.00133201
-0.00104293
-0.000743904
-0.000423553
-7.69131e-05
0.00027163
0.000623129
0.00101188
0.00139082
0.00176378
0.00215803
0.00258366
0.00299109
0.00340405
0.0038328
0.00426429
0.00472434
0.00521318
0.00571632
0.00620235
0.00670172
0.00720377
0.00773675
0.00824033
0.00875258
0.00926721
0.00982915
0.0104081
0.0110058
0.0115915
0.0121571
0.0127507
0.0133452
0.0140008
0.0146086
0.0152749
0.0159512
0.0166108
0.0173213
0.0180298
0.0187475
0.0195472
0.0203767
0.0211465
-0.0116029
-0.0132966
-0.0167319
-0.019864
-0.020621
-0.0195141
-0.0178466
-0.0162827
-0.0151181
-0.0144793
-0.0142445
-0.0141645
-0.0140564
-0.0137733
-0.0132602
-0.0127193
-0.0123658
-0.0121343
-0.0118676
-0.0115719
-0.0112828
-0.0109551
-0.010561
-0.0101544
-0.00979425
-0.00945701
-0.00911031
-0.00880701
-0.00856998
-0.00832073
-0.00801689
-0.00773062
-0.00752109
-0.00733433
-0.00709883
-0.00684454
-0.00666734
-0.00656712
-0.0064378
-0.00622263
-0.00597767
-0.00572365
-0.0054603
-0.00517272
-0.00486467
-0.00456757
-0.00425961
-0.0039045
-0.00358011
-0.00335366
-0.00318431
-0.00298818
-0.00273823
-0.00241764
-0.00203396
-0.0016564
-0.00133153
-0.00104252
-0.000743547
-0.000423239
-7.66028e-05
0.000271952
0.000623409
0.00101215
0.00139108
0.00176401
0.00215824
0.00258389
0.0029913
0.00340424
0.00383299
0.00426445
0.0047245
0.00521335
0.00571651
0.00620253
0.00670188
0.00720393
0.00773692
0.0082405
0.00875272
0.00926734
0.00982927
0.0104082
0.011006
0.0115916
0.0121572
0.0127508
0.0133453
0.0140009
0.0146087
0.015275
0.0159513
0.0166108
0.0173214
0.0180299
0.0187476
0.0195472
0.0203768
0.0211471
-0.0118223
-0.0133987
-0.0164864
-0.019481
-0.0203759
-0.0194239
-0.0178116
-0.0162538
-0.0150913
-0.0144589
-0.0142274
-0.0141429
-0.0140264
-0.0137406
-0.0132355
-0.0127052
-0.0123559
-0.0121228
-0.011855
-0.011561
-0.0112747
-0.0109493
-0.0105568
-0.0101509
-0.00979101
-0.00945475
-0.0091093
-0.00880617
-0.00856846
-0.00831934
-0.00801652
-0.00773051
-0.00751992
-0.00733235
-0.0070973
-0.00684365
-0.00666608
-0.00656514
-0.00643591
-0.00622136
-0.00597664
-0.00572234
-0.00545889
-0.00517163
-0.00486388
-0.00456676
-0.00425865
-0.00390349
-0.00357909
-0.00335265
-0.00318346
-0.00298758
-0.00273778
-0.00241712
-0.00203333
-0.00165577
-0.00133095
-0.001042
-0.000743091
-0.000422847
-7.62189e-05
0.000272354
0.000623764
0.00101248
0.00139138
0.00176428
0.0021585
0.00258414
0.00299154
0.00340445
0.00383321
0.00426463
0.00472467
0.00521354
0.00571671
0.00620271
0.00670205
0.00720409
0.00773711
0.00824068
0.00875287
0.00926748
0.0098294
0.0104083
0.0110061
0.0115918
0.0121574
0.0127509
0.0133454
0.014001
0.0146088
0.0152751
0.0159514
0.0166109
0.0173215
0.0180299
0.0187476
0.0195472
0.0203768
0.0211479
-0.0120262
-0.0135157
-0.016256
-0.0190903
-0.0201131
-0.019325
-0.0177759
-0.0162245
-0.0150622
-0.0144358
-0.0142085
-0.0141202
-0.013995
-0.0137062
-0.0132091
-0.0126902
-0.0123453
-0.0121101
-0.0118405
-0.0115479
-0.0112644
-0.0109416
-0.0105512
-0.0101465
-0.00978722
-0.00945218
-0.00910827
-0.00880529
-0.00856671
-0.00831787
-0.0080166
-0.00773106
-0.00751896
-0.00733013
-0.00709573
-0.0068431
-0.00666501
-0.00656281
-0.00643344
-0.00621965
-0.00597521
-0.0057205
-0.00545691
-0.00517022
-0.00486305
-0.00456597
-0.00425765
-0.00390246
-0.00357803
-0.00335146
-0.00318237
-0.00298679
-0.00273717
-0.00241643
-0.00203253
-0.00165501
-0.00133026
-0.00104133
-0.000742496
-0.000422343
-7.57265e-05
0.000272879
0.000624235
0.00101289
0.00139175
0.00176463
0.00215882
0.00258443
0.0029918
0.00340469
0.00383344
0.00426482
0.00472485
0.00521375
0.00571694
0.00620291
0.00670223
0.00720426
0.0077373
0.00824087
0.00875304
0.00926763
0.00982954
0.0104085
0.0110063
0.011592
0.0121575
0.0127511
0.0133456
0.0140011
0.0146089
0.0152752
0.0159515
0.016611
0.0173216
0.01803
0.0187477
0.0195471
0.0203768
0.0211488
-0.0122088
-0.0136368
-0.0160399
-0.0186943
-0.0198328
-0.0192164
-0.0177394
-0.0161953
-0.0150309
-0.0144098
-0.0141876
-0.0140965
-0.0139628
-0.0136704
-0.0131813
-0.0126743
-0.012334
-0.0120966
-0.0118249
-0.0115335
-0.0112524
-0.0109323
-0.0105443
-0.0101413
-0.00978296
-0.00944943
-0.00910718
-0.00880425
-0.0085646
-0.00831621
-0.00801702
-0.00773221
-0.00751827
-0.00732776
-0.00709414
-0.00684296
-0.00666429
-0.00656037
-0.00643061
-0.00621759
-0.00597335
-0.00571796
-0.0054541
-0.00516821
-0.00486202
-0.00456516
-0.00425669
-0.00390163
-0.00357716
-0.00335026
-0.00318109
-0.00298579
-0.00273635
-0.00241551
-0.00203155
-0.00165415
-0.00132944
-0.00104049
-0.000741728
-0.000421698
-7.50933e-05
0.000273574
0.000624872
0.00101342
0.0013922
0.00176509
0.00215925
0.0025848
0.00299213
0.00340499
0.00383371
0.00426503
0.00472506
0.00521398
0.00571719
0.00620313
0.00670244
0.00720446
0.00773751
0.00824106
0.00875321
0.00926779
0.00982969
0.0104087
0.0110065
0.0115922
0.0121577
0.0127512
0.0133457
0.0140013
0.014609
0.0152753
0.0159517
0.0166111
0.0173216
0.01803
0.0187478
0.019547
0.0203766
0.0211498
-0.0123631
-0.013757
-0.0158437
-0.0182973
-0.0195338
-0.019095
-0.0177006
-0.0161664
-0.0149977
-0.0143808
-0.0141645
-0.0140717
-0.0139297
-0.0136334
-0.013152
-0.0126572
-0.0123222
-0.0120826
-0.0118087
-0.0115181
-0.0112394
-0.0109218
-0.0105363
-0.0101352
-0.00977829
-0.00944655
-0.00910606
-0.00880304
-0.00856213
-0.00831427
-0.00801756
-0.00773379
-0.00751785
-0.00732535