/*--------------------------------*- C++ -*----------------------------------*\
| =========                 |                                                 |
| \\      /  F ield         | OpenFOAM: The Open Source CFD Toolbox           |
|  \\    /   O peration     | Version:  v2012                                 |
|   \\  /    A nd           | Website:  www.openfoam.com                      |
|    \\/     M anipulation  |                                                 |
\*---------------------------------------------------------------------------*/
FoamFile
{
    version     2.0;
    format      ascii;
    class       surfaceScalarField;
    location    "10.6";
    object      phi;
}
// * * * * * * * * * * * * * * * * * * * * * * * * * * * * * * * * * * * * * //

dimensions      [0 3 -1 0 0 0 0];
oriented        oriented;


internalField   nonuniform List<scalar> 
19000
(
1.19687e-06
5.6088e-07
1.23467e-06
2.59132e-07
1.17007e-06
4.56343e-07
1.05471e-06
-7.59769e-07
1.22355e-06
1.7097e-06
1.12018e-06
9.85809e-07
1.08872e-06
-5.84315e-07
1.1425e-06
4.9503e-07
1.09894e-06
-8.60195e-08
1.15771e-06
5.13822e-07
1.17349e-06
3.253e-07
1.15937e-06
5.05496e-07
1.16583e-06
6.63671e-07
1.12611e-06
2.01191e-07
1.14758e-06
4.8672e-07
1.11767e-06
2.13134e-07
1.1284e-06
2.06152e-07
1.13003e-06
3.34821e-07
1.12334e-06
3.00091e-07
3.26772e-07
1.10966e-06
1.25045e-06
5.34694e-07
1.29207e-06
2.17511e-07
1.22399e-06
5.24418e-07
1.10326e-06
-6.39039e-07
1.28184e-06
1.53113e-06
1.17991e-06
1.08774e-06
1.14921e-06
-5.53616e-07
1.20431e-06
4.3993e-07
1.1587e-06
-4.04164e-08
1.2196e-06
4.52926e-07
1.2334e-06
3.11498e-07
1.22266e-06
5.1624e-07
1.22168e-06
6.64652e-07
1.1879e-06
2.34972e-07
1.19622e-06
4.78399e-07
1.18699e-06
2.2236e-07
1.1715e-06
2.2164e-07
1.20387e-06
3.02457e-07
1.16169e-06
3.42272e-07
2.97279e-07
1.19118e-06
1.30535e-06
5.12129e-07
1.34877e-06
1.7409e-07
1.28106e-06
5.92125e-07
1.154e-06
-5.1198e-07
1.3341e-06
1.35103e-06
1.2549e-06
1.16694e-06
1.21598e-06
-5.14696e-07
1.27769e-06
3.78222e-07
1.22687e-06
1.04068e-08
1.28851e-06
3.91282e-07
1.29759e-06
3.02419e-07
1.29752e-06
5.1631e-07
1.28391e-06
6.7826e-07
1.26172e-06
2.57168e-07
1.25458e-06
4.85539e-07
1.25972e-06
2.17216e-07
1.23302e-06
2.48344e-07
1.25781e-06
2.77665e-07
1.2355e-06
3.64577e-07
3.02568e-07
1.23021e-06
1.36051e-06
4.95719e-07
1.40638e-06
1.28224e-07
1.34247e-06
6.56038e-07
1.21016e-06
-3.79672e-07
1.3834e-06
1.17779e-06
1.34357e-06
1.20677e-06
1.28943e-06
-4.6056e-07
1.35479e-06
3.12862e-07
1.29991e-06
6.52903e-08
1.35467e-06
3.36516e-07
1.36158e-06
2.95512e-07
1.37146e-06
5.06428e-07
1.35221e-06
6.97513e-07
1.33506e-06
2.74315e-07
1.32293e-06
4.97672e-07
1.32721e-06
2.12936e-07
1.3073e-06
2.68254e-07
1.31436e-06
2.70603e-07
1.31117e-06
3.67766e-07
3.16859e-07
1.29688e-06
1.41657e-06
4.87503e-07
1.46508e-06
7.97174e-08
1.40908e-06
7.12031e-07
1.27568e-06
-2.46265e-07
1.43001e-06
1.02345e-06
1.4377e-06
1.19908e-06
1.36627e-06
-3.89131e-07
1.4256e-06
2.53532e-07
1.3748e-06
1.16099e-07
1.41356e-06
2.97751e-07
1.42216e-06
2.86911e-07
1.43788e-06
4.90715e-07
1.42175e-06
7.13636e-07
1.40463e-06
2.91434e-07
1.39336e-06
5.08945e-07
1.39099e-06
2.15307e-07
1.3801e-06
2.79141e-07
1.3779e-06
2.72801e-07
1.38075e-06
3.64915e-07
3.28861e-07
1.36875e-06
1.47499e-06
4.88186e-07
1.52477e-06
2.99446e-08
1.48077e-06
7.56031e-07
1.35353e-06
-1.1903e-07
1.47702e-06
8.9996e-07
1.52586e-06
1.15024e-06
1.4448e-06
-3.08075e-07
1.48799e-06
2.10346e-07
1.44995e-06
1.54139e-07
1.46942e-06
2.78282e-07
1.47961e-06
2.76714e-07
1.49782e-06
4.72512e-07
1.48953e-06
7.21924e-07
1.47263e-06
3.08337e-07
1.46257e-06
5.18998e-07
1.45431e-06
2.23572e-07
1.44767e-06
2.85775e-07
1.44205e-06
2.78426e-07
1.44616e-06
3.60807e-07
3.38634e-07
1.43638e-06
1.53794e-06
4.96467e-07
1.58581e-06
-1.79292e-08
1.55675e-06
7.8509e-07
1.44341e-06
-5.69124e-09
1.52925e-06
8.14125e-07
1.6029e-06
1.07659e-06
1.52585e-06
-2.31024e-07
1.54858e-06
1.87615e-07
1.52492e-06
1.778e-07
1.52863e-06
2.74573e-07
1.53724e-06
2.68099e-07
1.55561e-06
4.54142e-07
1.55616e-06
7.21372e-07
1.54211e-06
3.22388e-07
1.53312e-06
5.27988e-07
1.52107e-06
2.35623e-07
1.5146e-06
2.9225e-07
1.50634e-06
2.86682e-07
1.5106e-06
3.56543e-07
3.47059e-07
1.50218e-06
1.60736e-06
5.09231e-07
1.64928e-06
-5.98454e-08
1.63602e-06
7.98353e-07
1.54173e-06
8.85975e-08
1.59079e-06
7.65061e-07
1.67251e-06
9.94868e-07
1.61021e-06
-1.68726e-07
1.61455e-06
1.83275e-07
1.60001e-06
1.92348e-07
1.59438e-06
2.80201e-07
1.59918e-06
2.63297e-07
1.616e-06
4.37319e-07
1.62415e-06
7.13225e-07
1.61502e-06
3.31525e-07
1.60804e-06
5.34959e-07
1.59407e-06
2.49598e-07
1.58611e-06
3.00206e-07
1.57461e-06
2.98185e-07
1.57846e-06
3.5269e-07
3.54284e-07
1.57124e-06
1.68408e-06
5.22722e-07
1.71662e-06
-9.23833e-08
1.71748e-06
7.97499e-07
1.64381e-06
1.62267e-07
1.66348e-06
7.45389e-07
1.74189e-06
9.16454e-07
1.69684e-06
-1.23676e-07
1.68844e-06
1.91681e-07
1.67673e-06
2.04049e-07
1.66718e-06
2.89759e-07
1.66829e-06
2.62184e-07
1.68266e-06
4.22948e-07
1.69591e-06
6.99978e-07
1.69189e-06
3.35542e-07
1.68811e-06
5.3874e-07
1.67373e-06
2.6398e-07
1.66479e-06
3.09143e-07
1.65022e-06
3.12756e-07
1.6534e-06
3.49515e-07
3.60171e-07
1.64751e-06
1.7675e-06
5.33941e-07
1.78918e-06
-1.14057e-07
1.80038e-06
7.86299e-07
1.74614e-06
2.16499e-07
1.74683e-06
7.44705e-07
1.81635e-06
8.46932e-07
1.78418e-06
-9.15033e-08
1.76917e-06
2.06684e-07
1.7574e-06
2.15821e-07
1.74709e-06
3.00072e-07
1.74571e-06
2.63566e-07
1.75744e-06
4.11219e-07
1.77302e-06
6.8439e-07
1.77277e-06
3.35794e-07
1.77267e-06
5.38844e-07
1.75895e-06
2.77694e-07
1.75064e-06
3.17455e-07
1.73428e-06
3.29113e-07
1.73699e-06
3.46811e-07
3.64411e-07
1.73275e-06
1.85631e-06
5.41383e-07
1.86788e-06
-1.25634e-07
1.88478e-06
7.69402e-07
1.84731e-06
2.53966e-07
1.83891e-06
7.53105e-07
1.89776e-06
7.88091e-07
1.87202e-06
-6.57661e-08
1.85511e-06
2.2359e-07
1.8437e-06
2.27232e-07
1.8343e-06
3.09475e-07
1.8315e-06
2.66366e-07
1.84073e-06
4.01987e-07
1.8564e-06
6.68715e-07
1.85797e-06
3.34228e-07
1.86123e-06
5.3558e-07
1.84865e-06
2.90274e-07
1.84255e-06
3.23558e-07
1.82619e-06
3.45476e-07
1.82889e-06
3.44114e-07
3.66498e-07
1.8268e-06
1.94938e-06
5.44845e-07
1.95313e-06
-1.29383e-07
1.97155e-06
7.50976e-07
1.94757e-06
2.77948e-07
1.93733e-06
7.63344e-07
1.98574e-06
7.39679e-07
1.96165e-06
-4.1669e-08
1.94547e-06
2.3977e-07
1.93595e-06
2.36746e-07
1.9284e-06
3.17029e-07
1.92499e-06
2.69775e-07
1.93211e-06
3.94862e-07
1.94651e-06
6.54314e-07
1.94814e-06
3.32605e-07
1.95405e-06
5.29664e-07
1.94249e-06
3.01835e-07
1.93946e-06
3.2659e-07
1.92468e-06
3.60255e-07
1.92768e-06
3.41111e-07
3.65912e-07
1.92827e-06
2.04626e-06
5.4477e-07
2.04472e-06
-1.27842e-07
2.06188e-06
7.33818e-07
2.04797e-06
2.91856e-07
2.03997e-06
7.71353e-07
2.07938e-06
7.00263e-07
2.05477e-06
-1.70542e-08
2.04019e-06
2.54346e-07
2.03351e-06
2.43423e-07
2.02824e-06
3.22298e-07
2.02492e-06
2.73102e-07
2.03062e-06
3.89154e-07
2.04331e-06
6.41626e-07
2.04377e-06
3.32146e-07
2.05159e-06
5.21847e-07
2.04063e-06
3.12794e-07
2.04066e-06
3.2656e-07
2.02851e-06
3.72408e-07
2.03173e-06
3.37887e-07
3.62397e-07
2.03525e-06
2.14707e-06
5.417e-07
2.14215e-06
-1.22922e-07
2.1568e-06
7.19167e-07
2.14979e-06
2.9887e-07
2.14553e-06
7.75609e-07
2.17802e-06
6.67769e-07
2.15256e-06
8.40887e-09
2.13943e-06
2.67481e-07
2.13567e-06
2.47178e-07
2.13262e-06
3.25353e-07
2.12986e-06
2.7586e-07
2.13492e-06
3.84096e-07
2.14613e-06
6.30409e-07
2.14482e-06
3.33463e-07
2.15395e-06
5.12718e-07
2.14324e-06
3.23502e-07
2.14568e-06
3.24121e-07
2.13662e-06
3.81459e-07
2.13969e-06
3.34825e-07
3.56099e-07
2.14598e-06
2.25208e-06
5.36104e-07
2.24488e-06
-1.15718e-07
2.25698e-06
7.07072e-07
2.25425e-06
3.01597e-07
2.25378e-06
7.76081e-07
2.28136e-06
6.40189e-07
2.25549e-06
3.42768e-08
2.24333e-06
2.79643e-07
2.24219e-06
2.48311e-07
2.24089e-06
3.26657e-07
2.2388e-06
2.77949e-07
2.24372e-06
3.79181e-07
2.25399e-06
6.20138e-07
2.2508e-06
3.36653e-07
2.26084e-06
5.02677e-07
2.25031e-06
3.34031e-07
2.25425e-06
3.20179e-07
2.24838e-06
3.87329e-07
2.25086e-06
3.32351e-07
3.47499e-07
2.25946e-06
2.36151e-06
5.28468e-07
2.35264e-06
-1.06848e-07
2.36279e-06
6.96921e-07
2.36251e-06
3.01882e-07
2.36527e-06
7.73318e-07
2.38921e-06
6.16248e-07
2.36365e-06
5.98434e-08
2.35222e-06
2.91071e-07
2.35335e-06
2.47176e-07
2.35312e-06
3.2689e-07
2.35142e-06
2.79655e-07
2.35631e-06
3.74288e-07
2.36614e-06
6.10308e-07
2.36135e-06
3.41442e-07
2.37202e-06
4.92003e-07
2.36189e-06
3.4416e-07
2.36648e-06
3.15594e-07
2.36365e-06
3.90152e-07
2.3653e-06
3.30702e-07
3.37291e-07
2.37551e-06
2.47549e-06
5.19377e-07
2.46546e-06
-9.68225e-08
2.47454e-06
6.87843e-07
2.47549e-06
3.00925e-07
2.48083e-06
7.6798e-07
2.50157e-06
5.95515e-07
2.47717e-06
8.42406e-08
2.46659e-06
3.01648e-07
2.46956e-06
2.44211e-07
2.46963e-06
3.26819e-07
2.46783e-06
2.81454e-07
2.47263e-06
3.69491e-07
2.4824e-06
6.00538e-07
2.47651e-06
3.47323e-07
2.48762e-06
4.80893e-07
2.47822e-06
3.53568e-07
2.48279e-06
3.11024e-07
2.48274e-06
3.90202e-07
2.48351e-06
3.29931e-07
3.26225e-07
2.49457e-06
2.59422e-06
5.09449e-07
2.58353e-06
-8.6133e-08
2.59248e-06
6.78895e-07
2.59379e-06
2.9962e-07
2.60106e-06
7.60707e-07
2.61866e-06
5.77914e-07
2.59634e-06
1.06559e-07
2.58681e-06
3.11174e-07
2.59102e-06
2.40007e-07
2.59066e-06
3.27178e-07
2.5883e-06
2.83812e-07
2.59299e-06
3.64797e-07
2.60298e-06
5.90554e-07
2.59662e-06
3.53681e-07
2.60804e-06
4.69476e-07
2.59961e-06
3.61994e-07
2.60372e-06
3.06915e-07
2.60604e-06
3.87886e-07
2.606e-06
3.2997e-07
3.15035e-07
2.61719e-06
2.71811e-06
4.99171e-07
2.70709e-06
-7.51128e-08
2.71683e-06
6.69153e-07
2.71766e-06
2.98791e-07
2.72626e-06
7.52101e-07
2.74101e-06
5.63164e-07
2.72147e-06
1.26106e-07
2.71292e-06
3.19721e-07
2.71773e-06
2.35197e-07
2.71642e-06
3.28488e-07
2.71314e-06
2.87092e-07
2.71786e-06
3.60079e-07
2.72822e-06
5.80194e-07
2.722e-06
3.59895e-07
2.73363e-06
4.57846e-07
2.72633e-06
3.693e-07
2.72972e-06
3.03524e-07
2.7339e-06
3.83706e-07
2.73319e-06
3.30678e-07
3.04405e-07
2.74382e-06
2.84766e-06
4.88775e-07
2.83637e-06
-6.38174e-08
2.84768e-06
6.57841e-07
2.8473e-06
2.99172e-07
2.85676e-06
7.42635e-07
2.86925e-06
5.50674e-07
2.85277e-06
1.42592e-07
2.84475e-06
3.27744e-07
2.84968e-06
2.30266e-07
2.84728e-06
3.30887e-07
2.84283e-06
2.91545e-07
2.84773e-06
3.55175e-07
2.8585e-06
5.69424e-07
2.85291e-06
3.65488e-07
2.86468e-06
4.4607e-07
2.85853e-06
3.75451e-07
2.86109e-06
3.00963e-07
2.86667e-06
3.78127e-07
2.86544e-06
3.31907e-07
2.94873e-07
2.87497e-06
2.98341e-06
4.78257e-07
2.97166e-06
-5.20649e-08
2.98506e-06
6.44445e-07
2.98296e-06
3.01274e-07
2.99306e-06
7.32531e-07
3.00391e-06
5.39823e-07
2.9904e-06
1.56104e-07
2.98226e-06
3.35879e-07
2.98704e-06
2.25486e-07
2.98383e-06
3.34102e-07
2.97806e-06
2.97315e-07
2.98325e-06
3.49984e-07
2.99434e-06
5.58335e-07
2.98959e-06
3.70237e-07
3.00149e-06
4.34175e-07
2.99643e-06
3.80501e-07
2.99816e-06
2.99234e-07
3.00484e-06
3.71448e-07
3.00327e-06
3.33477e-07
2.86832e-07
3.01131e-06
3.12579e-06
4.6747e-07
3.1133e-06
-3.95711e-08
3.12902e-06
6.28724e-07
3.12498e-06
3.05311e-07
3.13579e-06
7.21731e-07
3.14536e-06
5.30252e-07
3.13452e-06
1.66941e-07
3.12575e-06
3.44643e-07
3.13023e-06
2.21009e-07
3.12675e-06
3.37585e-07
3.11962e-06
3.04447e-07
3.12512e-06
3.44484e-07
3.13637e-06
5.47083e-07
3.13244e-06
3.74169e-07
3.14445e-06
4.22165e-07
3.14041e-06
3.8454e-07
3.14132e-06
2.98324e-07
3.14901e-06
3.63759e-07
3.14733e-06
3.35155e-07
2.80548e-07
3.15362e-06
3.27516e-06
4.56216e-07
3.26165e-06
-2.60569e-08
3.27974e-06
6.10637e-07
3.27378e-06
3.11271e-07
3.28551e-06
7.09995e-07
3.29387e-06
5.21898e-07
3.28534e-06
1.75469e-07
3.27572e-06
3.54263e-07
3.27974e-06
2.16988e-07
3.27662e-06
3.40708e-07
3.26816e-06
3.129e-07
3.27395e-06
3.38699e-07
3.28527e-06
5.35766e-07
3.28191e-06
3.77528e-07
3.29403e-06
4.10047e-07
3.29097e-06
3.87592e-07
3.29099e-06
2.98303e-07
3.29971e-06
3.55048e-07
3.29829e-06
3.36566e-07
2.76225e-07
3.30262e-06
3.43184e-06
4.44303e-07
3.41708e-06
-1.12898e-08
3.43748e-06
5.90238e-07
3.42971e-06
3.1904e-07
3.44264e-06
6.97059e-07
3.4497e-06
5.14842e-07
3.44311e-06
1.82058e-07
3.43271e-06
3.64658e-07
3.43606e-06
2.13646e-07
3.43386e-06
3.42908e-07
3.4242e-06
3.22561e-07
3.43019e-06
3.32704e-07
3.44162e-06
5.2434e-07
3.43846e-06
3.80686e-07
3.45064e-06
3.97866e-07
3.44869e-06
3.89545e-07
3.44761e-06
2.99378e-07
3.45735e-06
3.45304e-07
3.45671e-06
3.37211e-07
2.73976e-07
3.45896e-06
3.59616e-06
4.31556e-07
3.57995e-06
4.92202e-09
3.60257e-06
5.67616e-07
3.59314e-06
3.28467e-07
3.60744e-06
6.82759e-07
3.61315e-06
5.09132e-07
3.60813e-06
1.87081e-07
3.59726e-06
3.75533e-07
3.59964e-06
2.11265e-07
3.59879e-06
3.43756e-07
3.58808e-06
3.33272e-07
3.59414e-06
3.26644e-07
3.60587e-06
5.12602e-07
3.60249e-06
3.8407e-07
3.61465e-06
3.85701e-07
3.614e-06
3.902e-07
3.61167e-06
3.01712e-07
3.62216e-06
3.34814e-07
3.62295e-06
3.36413e-07
2.73731e-07
3.6232e-06
3.76845e-06
4.17812e-07
3.75063e-06
2.27399e-08
3.77537e-06
5.4288e-07
3.76446e-06
3.39376e-07
3.78013e-06
6.6709e-07
3.78457e-06
5.04689e-07
3.78073e-06
1.90921e-07
3.7698e-06
3.86465e-07
3.7709e-06
2.10163e-07
3.77169e-06
3.42964e-07
3.76014e-06
3.4482e-07
3.76602e-06
3.20767e-07
3.77836e-06
5.00258e-07
3.7744e-06
3.88029e-07
3.78635e-06
3.73751e-07
3.7873e-06
3.89254e-07
3.78364e-06
3.05366e-07
3.79432e-06
3.24141e-07
3.7972e-06
3.33534e-07
2.7505e-07
3.79588e-06
3.94908e-06
4.02925e-07
3.92953e-06
4.22861e-08
3.95622e-06
5.1619e-07
3.94405e-06
3.51546e-07
3.96093e-06
6.50213e-07
3.96433e-06
5.01286e-07
3.96126e-06
1.93993e-07
3.95074e-06
3.96979e-07
3.95029e-06
2.10622e-07
3.95285e-06
3.40395e-07
3.94075e-06
3.56922e-07
3.94609e-06
3.15426e-07
3.95939e-06
4.86964e-07
3.95464e-06
3.92774e-07
3.96605e-06
3.62349e-07
3.96889e-06
3.86412e-07
3.96411e-06
3.10143e-07
3.97413e-06
3.14124e-07
3.97951e-06
3.28157e-07
2.77113e-07
3.97744e-06
4.1384e-06
3.86773e-07
4.11706e-06
6.36276e-08
4.14548e-06
4.87768e-07
4.13235e-06
3.64683e-07
4.15015e-06
6.32406e-07
4.15287e-06
4.9857e-07
4.15012e-06
1.96745e-07
4.14051e-06
4.06588e-07
4.13827e-06
2.12862e-07
4.14261e-06
3.36057e-07
4.13032e-06
3.69209e-07
4.13471e-06
3.11039e-07
4.14921e-06
4.72458e-07
4.14374e-06
3.98244e-07
4.15408e-06
3.52006e-07
4.15902e-06
3.81472e-07
4.15357e-06
3.15597e-07
4.16205e-06
3.05643e-07
4.16991e-06
3.203e-07
2.78781e-07
4.16824e-06
4.3368e-06
3.69276e-07
4.31368e-06
8.67479e-08
4.34353e-06
4.57916e-07
4.32978e-06
3.78433e-07
4.34817e-06
6.14021e-07
4.35064e-06
4.96097e-07
4.34773e-06
1.99652e-07
4.33947e-06
4.1485e-07
4.33534e-06
2.16997e-07
4.34129e-06
3.30106e-07
4.32925e-06
3.81244e-07
4.33224e-06
3.08053e-07
4.34809e-06
4.56606e-07
4.3422e-06
4.04131e-07
4.35085e-06
3.43355e-07
4.35794e-06
3.74385e-07
4.35248e-06
3.21058e-07
4.35876e-06
2.99368e-07
4.36853e-06
3.10523e-07
2.78945e-07
4.36837e-06
4.54463e-06
3.50416e-07
4.51986e-06
1.11522e-07
4.55078e-06
4.26995e-07
4.53682e-06
3.92392e-07
4.55538e-06
5.9546e-07
4.55809e-06
4.93386e-07
4.55457e-06
2.0317e-07
4.54804e-06
4.21382e-07
4.542e-06
2.23037e-07
4.54927e-06
3.22833e-07
4.53797e-06
3.92544e-07
4.53916e-06
3.06869e-07
4.55631e-06
4.39452e-07
4.55051e-06
4.09934e-07
4.5568e-06
3.37059e-07
4.56595e-06
3.65236e-07
4.56121e-06
3.25799e-07
4.56511e-06
2.95472e-07
4.57569e-06
2.99943e-07
2.76756e-07
4.57788e-06
4.76229e-06
3.30242e-07
4.73608e-06
1.37734e-07
4.76767e-06
3.954e-07
4.75397e-06
4.06099e-07
4.77225e-06
5.77179e-07
4.7757e-06
4.89937e-07
4.77115e-06
2.07715e-07
4.76656e-06
4.25975e-07
4.75879e-06
2.30807e-07
4.76697e-06
3.14654e-07
4.7569e-06
4.02607e-07
4.75599e-06
3.07782e-07
4.77421e-06
4.21231e-07
4.76912e-06
4.15022e-07
4.77263e-06
3.33551e-07
4.78342e-06
3.54453e-07
4.78018e-06
3.29036e-07
4.78184e-06
2.93812e-07
4.79209e-06
2.89695e-07
2.72062e-07
4.79678e-06
4.99018e-06
3.08863e-07
4.96283e-06
1.65084e-07
4.99467e-06
3.63559e-07
4.98171e-06
4.19053e-07
4.99921e-06
5.59682e-07
5.00392e-06
4.85225e-07
4.99802e-06
2.13622e-07
4.99541e-06
4.28583e-07
4.98624e-06
2.39975e-07
4.99483e-06
3.06066e-07
4.98644e-06
4.10996e-07
4.98331e-06
3.1091e-07
5.00216e-06
4.02381e-07
4.99851e-06
4.18675e-07
4.99904e-06
3.33021e-07
5.0108e-06
3.4269e-07
5.00969e-06
3.30148e-07
5.00959e-06
2.93911e-07
5.01856e-06
2.80725e-07
2.65395e-07
5.02523e-06
5.22875e-06
2.8643e-07
5.20061e-06
1.93222e-07
5.23223e-06
3.3194e-07
5.22059e-06
4.30695e-07
5.23676e-06
5.43509e-07
5.24321e-06
4.78775e-07
5.23578e-06
2.21049e-07
5.23495e-06
4.29413e-07
5.22485e-06
2.50083e-07
5.23337e-06
2.97543e-07
5.22696e-06
4.17403e-07
5.2217e-06
3.16168e-07
5.24059e-06
3.83493e-07
5.23906e-06
4.20208e-07
5.23674e-06
3.35339e-07
5.24861e-06
3.30826e-07
5.25008e-06
3.28673e-07
5.24889e-06
2.95101e-07
5.25604e-06
2.73572e-07
2.57736e-07
5.2637e-06
5.47848e-06
2.63137e-07
5.44996e-06
2.21742e-07
5.48083e-06
3.01074e-07
5.47116e-06
4.40362e-07
5.48541e-06
5.29262e-07
5.49393e-06
4.7025e-07
5.48507e-06
2.29911e-07
5.48564e-06
4.28841e-07
5.47511e-06
2.60619e-07
5.48313e-06
2.89517e-07
5.47891e-06
4.21629e-07
5.47177e-06
3.23304e-07
5.49003e-06
3.65232e-07
5.4912e-06
4.19036e-07
5.48645e-06
3.40095e-07
5.49743e-06
3.19844e-07
5.50177e-06
3.24335e-07
5.50019e-06
2.96681e-07
5.50533e-06
2.68428e-07
2.50016e-07
5.51305e-06
5.7399e-06
2.39195e-07
5.71143e-06
2.50211e-07
5.74091e-06
2.71594e-07
5.73404e-06
4.47238e-07
5.74572e-06
5.1758e-07
5.75649e-06
4.59473e-07
5.74655e-06
2.39853e-07
5.74793e-06
4.27466e-07
5.73748e-06
2.71062e-07
5.74471e-06
2.82287e-07
5.74274e-06
4.23604e-07
5.73409e-06
3.31956e-07
5.75103e-06
3.48295e-07
5.75534e-06
4.14719e-07
5.74881e-06
3.46631e-07
5.75798e-06
3.10669e-07
5.76512e-06
3.17193e-07
5.76392e-06
2.97886e-07
5.76711e-06
2.65236e-07
2.42896e-07
5.77423e-06
6.01355e-06
2.14835e-07
5.98562e-06
2.78139e-07
6.01295e-06
2.44273e-07
6.00983e-06
4.50355e-07
6.01832e-06
5.09087e-07
6.03125e-06
4.46546e-07
6.02086e-06
2.50236e-07
6.02241e-06
4.25923e-07
6.01244e-06
2.81029e-07
6.01877e-06
2.75953e-07
6.01897e-06
4.23411e-07
6.00923e-06
3.41693e-07
6.02429e-06
3.33238e-07
6.03183e-06
4.0717e-07
6.02451e-06
3.53955e-07
6.03095e-06
3.04228e-07
6.04052e-06
3.07625e-07
6.04057e-06
2.97841e-07
6.04196e-06
2.63843e-07
2.36772e-07
6.04808e-06
6.30001e-06
1.90313e-07
6.27316e-06
3.04985e-07
6.29744e-06
2.19999e-07
6.29915e-06
4.48644e-07
6.30394e-06
5.04297e-07
6.31861e-06
4.31879e-07
6.30865e-06
2.60198e-07
6.30978e-06
4.24788e-07
6.30044e-06
2.90365e-07
6.30594e-06
2.70454e-07
6.30816e-06
4.21196e-07
6.29776e-06
3.52089e-07
6.31046e-06
3.20539e-07
6.32105e-06
3.96577e-07
6.31406e-06
3.60949e-07
6.3173e-06
3.00985e-07
6.32831e-06
2.96616e-07
6.33057e-06
2.95583e-07
6.33056e-06
2.63856e-07
2.32008e-07
6.33532e-06
6.59988e-06
1.65906e-07
6.5747e-06
3.30157e-07
6.59496e-06
1.99749e-07
6.60255e-06
4.41046e-07
6.60345e-06
5.03394e-07
6.6191e-06
4.16231e-07
6.61057e-06
2.6873e-07
6.6108e-06
4.24561e-07
6.60203e-06
2.99132e-07
6.60684e-06
2.65644e-07
6.61094e-06
4.17097e-07
6.60032e-06
3.62713e-07
6.61028e-06
3.10578e-07
6.62351e-06
3.83346e-07
6.61795e-06
3.66511e-07
6.61794e-06
3.0099e-07
6.62909e-06
2.8547e-07
6.63424e-06
2.9043e-07
6.63363e-06
2.64466e-07
2.29031e-07
6.63661e-06
6.91377e-06
1.41924e-07
6.89093e-06
3.53003e-07
6.90632e-06
1.84353e-07
6.92035e-06
4.27016e-07
6.91776e-06
5.05988e-07
6.93327e-06
4.00718e-07
6.92709e-06
2.74907e-07
6.9263e-06
4.25355e-07
6.91783e-06
3.07603e-07
6.9221e-06
2.61372e-07
6.92796e-06
4.11242e-07
6.91752e-06
3.73149e-07
6.92449e-06
3.03612e-07
6.93972e-06
3.68108e-07
6.93653e-06
3.69709e-07
6.93374e-06
3.03771e-07
6.94368e-06
2.75533e-07
6.9518e-06
2.82315e-07
6.95174e-06
2.64525e-07
2.2791e-07
6.95286e-06
7.24238e-06
1.18685e-07
7.22251e-06
3.72873e-07
7.23251e-06
1.74351e-07
7.25258e-06
4.06944e-07
7.2478e-06
5.10765e-07
7.26178e-06
3.86737e-07
7.25868e-06
2.78011e-07
7.25706e-06
4.26974e-07
7.24846e-06
3.16203e-07
7.2523e-06
2.57537e-07
7.25985e-06
4.03687e-07
7.25004e-06
3.82957e-07
7.25384e-06
2.9981e-07
7.27038e-06
3.51572e-07
7.27016e-06
3.69932e-07
7.26546e-06
3.08471e-07
7.27311e-06
2.67879e-07
7.28345e-06
2.71974e-07
7.2852e-06
2.62781e-07
2.28165e-07
7.28494e-06
7.5864e-06
9.65116e-08
7.57018e-06
3.89093e-07
7.57459e-06
1.69937e-07
7.5996e-06
3.81933e-07
7.59446e-06
5.15906e-07
7.60535e-06
3.75853e-07
7.60584e-06
2.7752e-07
7.60403e-06
4.28785e-07
7.59469e-06
3.25535e-07
7.59799e-06
2.54238e-07
7.60724e-06
3.94436e-07
7.59851e-06
3.91697e-07
7.59917e-06
2.9915e-07
7.61606e-06
3.34677e-07
7.61923e-06
3.66759e-07
7.61368e-06
3.14027e-07
7.61851e-06
2.63049e-07
7.62989e-06
2.60594e-07
7.63419e-06
2.58478e-07
2.28754e-07
7.6336e-06
7.94657e-06
7.57499e-08
7.93459e-06
4.01074e-07
7.93364e-06
1.70885e-07
7.96212e-06
3.53458e-07
7.95844e-06
5.19589e-07
7.96497e-06
3.6932e-07
7.96891e-06
2.73575e-07
7.96788e-06
4.29819e-07
7.95738e-06
3.36036e-07
7.95977e-06
2.5185e-07
7.97071e-06
3.83496e-07
7.96353e-06
3.98871e-07
7.9612e-06
3.01477e-07
7.9774e-06
3.1848e-07
7.98411e-06
3.60046e-07
7.97895e-06
3.19186e-07
7.98085e-06
2.61158e-07
7.99208e-06
2.49363e-07
7.99898e-06
2.51573e-07
2.28516e-07
7.99922e-06
8.32372e-06
5.67069e-08
8.31652e-06
4.08276e-07
8.31063e-06
1.76779e-07
8.34081e-06
3.23272e-07
8.34033e-06
5.20078e-07
8.34181e-06
3.67838e-07
8.3486e-06
2.66786e-07
8.34928e-06
4.2914e-07
8.33745e-06
3.47858e-07
8.33822e-06
2.51079e-07
8.35071e-06
3.71009e-07
8.34572e-06
4.03861e-07
8.3408e-06
3.06396e-07
8.35521e-06
3.04076e-07
8.36532e-06
3.49934e-07
8.36179e-06
3.22711e-07
8.36119e-06
2.61764e-07
8.37115e-06
2.39402e-07
8.38008e-06
2.42645e-07
2.26625e-07
8.38197e-06
8.71868e-06
3.96934e-08
8.7167e-06
4.10256e-07
8.7065e-06
1.86973e-07
8.73661e-06
2.93166e-07
8.74075e-06
5.15932e-07
8.7369e-06
3.71692e-07
8.74529e-06
2.584e-07
8.74884e-06
4.25589e-07
8.73589e-06
3.60808e-07
8.73409e-06
2.52874e-07
8.74782e-06
3.5728e-07
8.74563e-06
4.06051e-07
8.73896e-06
3.13067e-07
8.7506e-06
2.92436e-07
8.7636e-06
3.36933e-07
8.76278e-06
3.23533e-07
8.76054e-06
2.64003e-07
8.76831e-06
2.31631e-07
8.77844e-06
2.32519e-07
2.22728e-07
8.78233e-06
9.13235e-06
2.49648e-08
9.13588e-06
4.06722e-07
9.12205e-06
2.00802e-07
9.15041e-06
2.6481e-07
9.16018e-06
5.06165e-07
9.15148e-06
3.80392e-07
9.1598e-06
2.50074e-07
9.16693e-06
4.18458e-07
9.15366e-06
3.74081e-07
9.14848e-06
2.58056e-07
9.16286e-06
3.42902e-07
9.16406e-06
4.04845e-07
9.15663e-06
3.20502e-07
9.16505e-06
2.84012e-07
9.17984e-06
3.22137e-07
9.18239e-06
3.20992e-07
9.17972e-06
2.66666e-07
9.18482e-06
2.26532e-07
9.1952e-06
2.22139e-07
2.16919e-07
9.20101e-06
9.56569e-06
1.27325e-08
9.57494e-06
3.97477e-07
9.55825e-06
2.1749e-07
9.58322e-06
2.39838e-07
9.59894e-06
4.90448e-07
9.58666e-06
3.92666e-07
9.59268e-06
2.44054e-07
9.60375e-06
4.07388e-07
9.59165e-06
3.86184e-07
9.583e-06
2.6671e-07
9.59719e-06
3.2871e-07
9.60209e-06
3.99943e-07
9.59504e-06
3.2755e-07
9.60011e-06
2.7895e-07
9.61536e-06
3.06889e-07
9.62131e-06
3.1504e-07
9.61939e-06
2.68581e-07
9.62203e-06
2.23891e-07
9.63154e-06
2.12631e-07
2.09484e-07
9.63898e-06
1.00197e-05
3.16238e-09
1.00344e-05
3.82771e-07
1.0016e-05
2.35939e-07
1.00361e-05
2.19656e-07
1.00577e-05
4.68887e-07
1.00438e-05
4.06551e-07
1.00447e-05
2.43149e-07
1.00598e-05
3.92287e-07
1.00509e-05
3.95071e-07
1.00393e-05
2.78331e-07
1.0052e-05
3.15985e-07
1.00606e-05
3.9142e-07
1.0055e-05
3.33144e-07
1.00572e-05
2.76757e-07
1.00715e-05
2.92584e-07
1.00803e-05
3.06185e-07
1.008e-05
2.6888e-07
1.0081e-05
2.22894e-07
1.00887e-05
2.04905e-07
2.01002e-07
1.00972e-05
1.04955e-05
-3.72775e-09
1.05151e-05
3.63209e-07
1.04961e-05
2.5489e-07
1.05104e-05
2.05376e-07
1.05373e-05
4.41992e-07
1.05243e-05
4.19574e-07
1.05188e-05
2.48644e-07
1.05363e-05
3.74783e-07
1.05321e-05
3.99292e-07
1.05189e-05
2.91523e-07
1.05288e-05
3.06097e-07
1.05403e-05
3.79881e-07
1.0537e-05
3.36434e-07
1.05372e-05
2.76612e-07
1.05496e-05
2.80113e-07
1.05605e-05
2.95291e-07
1.05622e-05
2.67183e-07
1.05626e-05
2.22497e-07
1.05683e-05
1.99268e-07
1.92421e-07
1.05768e-05
1.09943e-05
-7.98249e-09
1.10179e-05
3.39624e-07
1.09999e-05
2.72805e-07
1.10076e-05
1.97712e-07
1.10387e-05
4.10889e-07
1.10287e-05
4.29632e-07
1.10179e-05
2.59386e-07
1.10349e-05
3.57809e-07
1.10357e-05
3.98436e-07
1.10226e-05
3.04652e-07
1.10291e-05
2.99576e-07
1.10424e-05
3.66565e-07
1.1042e-05
3.36896e-07
1.1041e-05
2.77561e-07
1.10513e-05
2.69885e-07
1.10632e-05
2.83337e-07
1.10669e-05
2.63468e-07
1.10676e-05
2.21877e-07
1.10716e-05
1.95269e-07
1.84754e-07
1.10792e-05
1.15172e-05
-9.82565e-09
1.15434e-05
3.13417e-07
1.15283e-05
2.87945e-07
1.15293e-05
1.96691e-07
1.15629e-05
3.77324e-07
1.15577e-05
4.34815e-07
1.1543e-05
2.74017e-07
1.15573e-05
3.43518e-07
1.15627e-05
3.93033e-07
1.15511e-05
3.1629e-07
1.15545e-05
2.962e-07
1.15683e-05
3.52765e-07
1.15706e-05
3.34551e-07
1.15696e-05
2.78612e-07
1.15776e-05
2.61865e-07
1.15897e-05
2.71276e-07
1.15953e-05
2.57857e-07
1.15965e-05
2.20645e-07
1.15996e-05
1.92152e-07
1.7842e-07
1.16059e-05
1.20656e-05
-9.60251e-09
1.20932e-05
2.8584e-07
1.20821e-05
2.99017e-07
1.20772e-05
2.01609e-07
1.21108e-05
3.43673e-07
1.21118e-05
4.33837e-07
1.2095e-05
2.90783e-07
1.21054e-05
3.33149e-07
1.21143e-05
3.84188e-07
1.21051e-05
3.25426e-07
1.2106e-05
2.95365e-07
1.21192e-05
3.39552e-07
1.2124e-05
3.29684e-07
1.21236e-05
2.79014e-07
1.21299e-05
2.55641e-07
1.21413e-05
2.59844e-07
1.21485e-05
2.50682e-07
1.21505e-05
2.18622e-07
1.21532e-05
1.8943e-07
1.73208e-07
1.21584e-05
1.26408e-05
-7.77227e-09
1.26683e-05
2.5831e-07
1.26622e-05
3.05099e-07
1.26527e-05
2.11146e-07
1.2684e-05
3.12377e-07
1.26918e-05
4.25976e-07
1.26747e-05
3.07937e-07
1.26806e-05
3.27223e-07
1.26914e-05
3.7335e-07
1.26855e-05
3.31412e-07
1.26847e-05
2.96095e-07
1.26966e-05
3.27702e-07
1.27034e-05
3.22837e-07
1.27041e-05
2.78315e-07
1.2709e-05
2.5074e-07
1.27194e-05
2.49417e-07
1.27277e-05
2.42424e-07
1.27307e-05
2.15587e-07
1.27333e-05
1.86833e-07
1.68646e-07
1.27379e-05
1.3244e-05
-4.83756e-09
1.32703e-05
2.32057e-07
1.32698e-05
3.05516e-07
1.32571e-05
2.23832e-07
1.3284e-05
2.85527e-07
1.32978e-05
4.1214e-07
1.32826e-05
3.23158e-07
1.32843e-05
3.25529e-07
1.32956e-05
3.62062e-07
1.3293e-05
3.33992e-07
1.32917e-05
2.97396e-07
1.33021e-05
3.17367e-07
1.33102e-05
3.14693e-07
1.33122e-05
2.76277e-07
1.33164e-05
2.46592e-07
1.33257e-05
2.40134e-07
1.33344e-05
2.33665e-07
1.33386e-05
2.11423e-07
1.33412e-05
1.84254e-07
1.64473e-07
1.33453e-05
1.38766e-05
-1.27823e-09
1.39009e-05
2.07778e-07
1.39058e-05
3.00621e-07
1.38915e-05
2.3809e-07
1.39122e-05
2.64808e-07
1.39313e-05
3.93102e-07
1.39198e-05
3.34668e-07
1.39179e-05
3.2741e-07
1.39286e-05
3.51395e-07
1.3929e-05
3.33528e-07
1.3928e-05
2.98376e-07
1.39368e-05
3.08577e-07
1.39456e-05
3.0591e-07
1.3949e-05
2.72898e-07
1.3953e-05
2.42613e-07
1.39612e-05
2.31923e-07
1.397e-05
2.24852e-07
1.39753e-05
2.06104e-07
1.39781e-05
1.81452e-07
1.60632e-07
1.3982e-05
1.454e-05
2.36675e-09
1.45614e-05
1.86382e-07
1.45698e-05
2.92189e-07
1.45563e-05
2.51653e-07
1.45711e-05
2.49949e-07
1.45932e-05
3.71054e-07
1.4586e-05
3.41828e-07
1.45824e-05
3.31083e-07
1.45919e-05
3.41897e-07
1.4595e-05
3.30371e-07
1.45951e-05
2.98315e-07
1.46027e-05
3.00957e-07
1.46116e-05
2.96998e-07
1.46161e-05
2.68434e-07
1.46201e-05
2.38598e-07
1.46274e-05
2.24597e-07
1.46359e-05
2.16344e-07
1.46421e-05
1.99937e-07
1.46454e-05
1.78106e-07
1.57133e-07
1.46489e-05
1.52354e-05
5.86465e-09
1.52481e-05
1.73705e-07
1.52611e-05
2.79151e-07
1.52527e-05
2.60037e-07
1.52635e-05
2.39157e-07
1.52846e-05
3.49965e-07
1.52823e-05
3.44111e-07
1.52789e-05
3.34506e-07
1.52869e-05
3.33921e-07
1.52919e-05
3.25357e-07
1.52935e-05
2.96743e-07
1.53004e-05
2.93996e-07
1.53093e-05
2.88132e-07
1.53147e-05
2.63032e-07
1.5319e-05
2.34301e-07
1.53258e-05
2.17757e-07
1.53339e-05
2.08248e-07
1.53406e-05
1.93223e-07
1.53447e-05
1.74049e-07
1.53831e-07
1.5348e-05
1.59649e-05
8.32139e-09
1.59883e-05
1.50274e-07
1.60111e-05
2.56392e-07
1.5997e-05
2.74064e-07
1.59924e-05
2.43771e-07
1.60062e-05
3.36207e-07
1.60099e-05
3.40379e-07
1.6009e-05
3.35445e-07
1.6016e-05
3.26906e-07
1.60222e-05
3.19152e-07
1.60254e-05
2.93578e-07
1.60318e-05
2.87535e-07
1.60405e-05
2.79498e-07
1.60465e-05
2.57019e-07
1.6051e-05
2.29756e-07
1.60575e-05
2.11313e-07
1.60652e-05
2.0055e-07
1.60721e-05
1.86323e-07
1.60768e-05
1.69342e-07
1.50325e-07
1.60803e-05
1.67278e-05
1.11087e-08
1.67298e-05
1.48334e-07
1.6746e-05
2.40165e-07
1.67452e-05
2.74821e-07
1.67475e-05
2.41492e-07
1.67649e-05
3.18848e-07
1.6773e-05
3.32245e-07
1.67739e-05
3.34533e-07
1.67801e-05
3.20709e-07
1.67869e-05
3.12352e-07
1.67914e-05
2.89119e-07
1.67981e-05
2.80823e-07
1.68066e-05
2.70962e-07
1.68133e-05
2.50326e-07
1.68183e-05
2.24751e-07
1.68245e-05
2.05154e-07
1.68319e-05
1.93167e-07
1.68387e-05
1.79455e-07
1.6844e-05
1.64051e-07
1.46529e-07
1.68478e-05
1.75286e-05
1.29091e-08
1.75419e-05
1.34951e-07
1.75536e-05
2.28526e-07
1.75473e-05
2.81063e-07
1.75461e-05
2.42704e-07
1.75607e-05
3.04292e-07
1.7572e-05
3.20965e-07
1.75754e-05
3.31087e-07
1.75814e-05
3.14758e-07
1.75885e-05
3.05236e-07
1.7594e-05
2.83556e-07
1.7601e-05
2.73877e-07
1.76093e-05
2.62626e-07
1.76164e-05
2.43253e-07
1.76218e-05
2.19347e-07
1.76277e-05
1.99227e-07
1.76348e-05
1.86049e-07
1.76417e-05
1.72549e-07
1.76473e-05
1.5853e-07
1.42139e-07
1.76517e-05
1.83665e-05
1.47864e-08
1.83668e-05
1.34652e-07
1.83816e-05
2.13656e-07
1.83852e-05
2.77475e-07
1.83851e-05
2.42835e-07
1.8397e-05
2.92411e-07
1.84089e-05
3.09067e-07
1.84146e-05
3.25347e-07
1.84208e-05
3.08568e-07
1.84279e-05
2.98163e-07
1.84342e-05
2.77191e-07
1.84418e-05
2.66359e-07
1.84502e-05
2.54152e-07
1.84576e-05
2.35891e-07
1.84636e-05
2.1337e-07
1.84696e-05
1.93198e-07
1.84763e-05
1.79327e-07
1.84833e-05
1.65611e-07
1.84889e-05
1.52905e-07
1.37293e-07
1.84937e-05
1.92452e-05
1.59566e-08
1.92469e-05
1.33009e-07
1.92584e-05
2.02153e-07
1.92636e-05
2.72228e-07
1.92643e-05
2.42134e-07
1.92739e-05
2.8286e-07
1.92858e-05
2.97101e-07
1.92938e-05
3.17402e-07
1.93006e-05
3.0175e-07
1.93078e-05
2.90938e-07
1.93149e-05
2.70147e-07
1.93227e-05
2.58527e-07
1.93313e-05
2.45596e-07
1.93389e-05
2.28194e-07
1.93453e-05
2.07069e-07
1.93515e-05
1.86915e-07
1.9358e-05
1.72872e-07
1.93649e-05
1.58721e-07
1.93709e-05
1.46912e-07
1.3234e-07
1.93758e-05
2.01656e-05
1.67271e-08
2.0163e-05