/*--------------------------------*- C++ -*----------------------------------*\
| =========                 |                                                 |
| \\      /  F ield         | OpenFOAM: The Open Source CFD Toolbox           |
|  \\    /   O peration     | Version:  v2012                                 |
|   \\  /    A nd           | Website:  www.openfoam.com                      |
|    \\/     M anipulation  |                                                 |
\*---------------------------------------------------------------------------*/
FoamFile
{
    version     2.0;
    format      ascii;
    class       volVectorField;
    location    "10.6";
    object      U;
}
// * * * * * * * * * * * * * * * * * * * * * * * * * * * * * * * * * * * * * //

dimensions      [0 1 -1 0 0 0 0];


internalField   nonuniform List<vector> 
9600
(
(0.795952 0.00579598 0)
(1.22944 0.00313721 0)
(0.901381 0.00485624 0)
(1.09458 -0.0109263 0)
(0.722606 0.0254715 0)
(1.35654 0.0139016 0)
(0.588454 -0.0102723 0)
(1.25207 0.00960295 0)
(0.723967 -0.00232633 0)
(1.14047 0.0117663 0)
(0.851772 0.00798754 0)
(1.14389 0.0126673 0)
(0.851156 0.018599 0)
(1.13497 0.00525639 0)
(0.803875 0.0163925 0)
(1.14511 0.00696382 0)
(0.782953 0.00790342 0)
(1.13132 0.0147334 0)
(0.811183 0.0130704 0)
(1.09948 0.0168731 0)
(0.800919 0.00556221 0)
(1.22114 0.00261475 0)
(0.905174 0.00581483 0)
(1.08876 -0.00909084 0)
(0.724499 0.023381 0)
(1.34768 0.0158903 0)
(0.608089 -0.0094525 0)
(1.24332 0.00866065 0)
(0.74448 -0.0013124 0)
(1.13392 0.0107658 0)
(0.868722 0.0074477 0)
(1.13426 0.0130243 0)
(0.874334 0.0183863 0)
(1.11239 0.00654631 0)
(0.839791 0.0158992 0)
(1.10197 0.00776198 0)
(0.847677 0.00850285 0)
(1.05735 0.0132896 0)
(0.914808 0.0152657 0)
(0.980369 0.0146872 0)
(0.812631 0.00525403 0)
(1.20292 0.00214156 0)
(0.914474 0.00669202 0)
(1.07801 -0.00743624 0)
(0.731382 0.0203323 0)
(1.32817 0.0174137 0)
(0.653466 -0.00898189 0)
(1.21947 0.00747254 0)
(0.789975 -0.000307625 0)
(1.11144 0.00915435 0)
(0.905055 0.00709167 0)
(1.10873 0.0132929 0)
(0.922388 0.0185756 0)
(1.07396 0.0075311 0)
(0.900676 0.015739 0)
(1.04746 0.00793047 0)
(0.922128 0.0092395 0)
(0.996623 0.0119873 0)
(0.966102 0.0166871 0)
(0.959868 0.0145803 0)
(0.831545 0.00503314 0)
(1.17503 0.00166399 0)
(0.930425 0.00745473 0)
(1.06353 -0.00577329 0)
(0.746106 0.0176352 0)
(1.29427 0.0183208 0)
(0.725194 -0.00821751 0)
(1.17555 0.0063166 0)
(0.853157 0.00077645 0)
(1.07412 0.00771282 0)
(0.945672 0.00699001 0)
(1.07427 0.0131252 0)
(0.971075 0.01909 0)
(1.0391 0.00803669 0)
(0.951378 0.0161108 0)
(1.01252 0.00767208 0)
(0.965066 0.0100572 0)
(0.978528 0.0115627 0)
(0.978462 0.0169384 0)
(0.971576 0.0155215 0)
(0.856565 0.00491045 0)
(1.13963 0.00114472 0)
(0.951463 0.00816506 0)
(1.04748 -0.00404032 0)
(0.771336 0.0153396 0)
(1.24479 0.0186217 0)
(0.811063 -0.00708564 0)
(1.11745 0.00513182 0)
(0.914766 0.0018733 0)
(1.03503 0.00666026 0)
(0.973417 0.00683086 0)
(1.04271 0.0126965 0)
(1.00124 0.0196055 0)
(1.01807 0.00850684 0)
(0.97861 0.0165759 0)
(0.996959 0.00755381 0)
(0.980299 0.0107431 0)
(0.978039 0.0115205 0)
(0.980629 0.0168183 0)
(0.978523 0.0163911 0)
(0.885121 0.00487719 0)
(1.10113 0.000595312 0)
(0.973531 0.00876709 0)
(1.03275 -0.0023287 0)
(0.806841 0.013385 0)
(1.18469 0.0182044 0)
(0.891221 -0.00573355 0)
(1.06102 0.0041112 0)
(0.959147 0.00276107 0)
(1.00661 0.0060417 0)
(0.98413 0.00657108 0)
(1.01926 0.0122355 0)
(1.01135 0.0199567 0)
(1.00853 0.00907183 0)
(0.988557 0.0169234 0)
(0.990848 0.00779177 0)
(0.98233 0.0111056 0)
(0.977685 0.0116218 0)
(0.979411 0.016716 0)
(0.978598 0.0169664 0)
(0.913756 0.00492798 0)
(1.06524 4.60609e-05 0)
(0.991962 0.00920832 0)
(1.02219 -0.000752641 0)
(0.847848 0.0119082 0)
(1.12447 0.0172164 0)
(0.951347 -0.00438916 0)
(1.02063 0.00346777 0)
(0.98326 0.00333546 0)
(0.991537 0.005835 0)
(0.984152 0.00634161 0)
(1.00306 0.0117907 0)
(1.0091 0.0200821 0)
(1.00493 0.00958322 0)
(0.990825 0.0172355 0)
(0.989176 0.0082224 0)
(0.981029 0.0112946 0)
(0.975466 0.0119153 0)
(0.976329 0.016564 0)
(0.975542 0.0173549 0)
(0.939229 0.00504218 0)
(1.0368 -0.000457111 0)
(1.00366 0.0094619 0)
(1.0171 0.000605194 0)
(0.887334 0.0109874 0)
(1.07476 0.0159446 0)
(0.988473 -0.00325033 0)
(0.999987 0.00323848 0)
(0.992823 0.00367221 0)
(0.985361 0.00591553 0)
(0.981034 0.00620405 0)
(0.992339 0.011359 0)
(1.00241 0.0199669 0)
(1.00348 0.00993797 0)
(0.991296 0.0175197 0)
(0.99029 0.008699 0)
(0.980939 0.0115459 0)
(0.973952 0.0123697 0)
(0.973831 0.0163416 0)
(0.972792 0.0176996 0)
(0.959529 0.00518346 0)
(1.01781 -0.000869574 0)
(1.0083 0.0095338 0)
(1.01639 0.00169416 0)
(0.92016 0.0105453 0)
(1.04102 0.0146539 0)
(1.00732 -0.00239219 0)
(0.993472 0.00332059 0)
(0.995262 0.00391841 0)
(0.983367 0.00612551 0)
(0.978893 0.0061492 0)
(0.986091 0.0109668 0)
(0.996188 0.0196576 0)
(1.0025 0.0101173 0)
(0.991971 0.0177054 0)
(0.992881 0.00919867 0)
(0.98306 0.0118879 0)
(0.974766 0.0129445 0)
(0.973845 0.0161381 0)
(0.97252 0.0180372 0)
(0.974214 0.00531439 0)
(1.00725 -0.00116293 0)
(1.00797 0.00945625 0)
(1.01743 0.00251296 0)
(0.944969 0.0104429 0)
(1.02253 0.0134849 0)
(1.01465 -0.00177651 0)
(0.993285 0.0035772 0)
(0.995692 0.00415993 0)
(0.983463 0.00636132 0)
(0.97895 0.00615759 0)
(0.983599 0.0106353 0)
(0.992412 0.0192365 0)
(1.00161 0.0101558 0)
(0.992981 0.0177651 0)
(0.995698 0.00970539 0)
(0.986663 0.0122353 0)
(0.977869 0.0136263 0)
(0.976756 0.0159911 0)
(0.975324 0.0183128 0)
(0.984021 0.00541128 0)
(1.00247 -0.00133634 0)
(1.00559 0.00927808 0)
(1.01776 0.00309581 0)
(0.963061 0.0105322 0)
(1.01487 0.0124875 0)
(1.01602 -0.00131031 0)
(0.994436 0.00389804 0)
(0.996317 0.00440303 0)
(0.985146 0.00658077 0)
(0.981129 0.0062092 0)
(0.984067 0.0103653 0)
(0.991313 0.0187883 0)
(1.00106 0.0101153 0)
(0.994205 0.0177073 0)
(0.9981 0.0101843 0)
(0.990746 0.0125132 0)
(0.982402 0.0143566 0)
(0.98181 0.0158684 0)
(0.980606 0.0184738 0)
(0.990181 0.00546656 0)
(1.00085 -0.00141099 0)
(1.00337 0.00905575 0)
(1.01635 0.00348048 0)
(0.976302 0.0106865 0)
(1.01309 0.0116689 0)
(1.01496 -0.000901475 0)
(0.995278 0.0042154 0)
(0.997508 0.0046162 0)
(0.987966 0.00676568 0)
(0.984782 0.00628261 0)
(0.98659 0.0101543 0)
(0.992437 0.0183686 0)
(1.00116 0.0100563 0)
(0.995729 0.0175495 0)
(1.00009 0.010622 0)
(0.994692 0.0126771 0)
(0.987472 0.015046 0)
(0.987878 0.01574 0)
(0.987211 0.0184947 0)
(0.993891 0.00548293 0)
(1.00069 -0.00141665 0)
(1.00216 0.00883541 0)
(1.01358 0.00371313 0)
(0.985936 0.010828 0)
(1.01363 0.0110048 0)
(1.01331 -0.000492149 0)
(0.995836 0.00450246 0)
(0.998973 0.00477439 0)
(0.99117 0.00690217 0)
(0.988977 0.00636277 0)
(0.990178 0.00999259 0)
(0.995054 0.0179938 0)
(1.00201 0.0100232 0)
(0.997621 0.0173151 0)
(1.0019 0.0110309 0)
(0.998249 0.0127152 0)
(0.992411 0.0156266 0)
(0.993934 0.0156023 0)
(0.993933 0.0183641 0)
(0.99609 0.00546634 0)
(1.00112 -0.00137791 0)
(1.00181 0.00864315 0)
(1.01042 0.00383824 0)
(0.992632 0.0109213 0)
(1.0146 0.0104624 0)
(1.01188 -6.83504e-05 0)
(0.996359 0.00475484 0)
(1.00041 0.00487095 0)
(0.994107 0.00698737 0)
(0.992873 0.00643651 0)
(0.993896 0.00985768 0)
(0.998279 0.0176625 0)
(1.00335 0.0100436 0)
(0.999696 0.017022 0)
(1.0036 0.0114256 0)
(1.00131 0.0126501 0)
(0.996759 0.0160682 0)
(0.999252 0.0154694 0)
(0.999864 0.0180866 0)
(0.997431 0.00542182 0)
(1.00169 -0.00130957 0)
(1.0019 0.00848497 0)
(1.00757 0.00389494 0)
(0.997013 0.0109557 0)
(1.01528 0.0100117 0)
(1.0108 0.00036466 0)
(0.996892 0.0049815 0)
(1.00173 0.00491389 0)
(0.996514 0.00703013 0)
(0.996026 0.00649434 0)
(0.997088 0.00972942 0)
(1.0013 0.0173648 0)
(1.00476 0.0101244 0)
(1.00161 0.0166875 0)
(1.00508 0.011812 0)
(1.00382 0.0125204 0)
(1.00027 0.016364 0)
(1.00347 0.0153601 0)
(1.00456 0.0176894 0)
(0.998316 0.00535403 0)
(1.0021 -0.00122038 0)
(1.00225 0.00835524 0)
(1.00528 0.0039108 0)
(0.999875 0.0109387 0)
(1.01549 0.00962127 0)
(1.00992 0.000798475 0)
(0.997438 0.00519251 0)
(1.00299 0.00491024 0)
(0.998432 0.00704459 0)
(0.998374 0.00653617 0)
(0.999488 0.00960286 0)
(1.00364 0.0170839 0)
(1.00591 0.0102571 0)
(1.00314 0.016333 0)
(1.00625 0.0121837 0)
(1.00578 0.0123604 0)
(1.00294 0.0165214 0)
(1.00657 0.0152818 0)
(1.008 0.0172083 0)
(0.998938 0.00526841 0)
(1.00215 -0.00111623 0)
(1.00284 0.00824344 0)
(1.00351 0.00390389 0)
(1.00192 0.0108798 0)
(1.01525 0.00927847 0)
(1.00905 0.00121904 0)
(0.998077 0.00539367 0)
(1.00432 0.0048635 0)
(0.999963 0.00704504 0)
(1.00002 0.0065738 0)
(1.00111 0.00948088 0)
(1.0052 0.0168074 0)
(1.00671 0.0104276 0)
(1.00426 0.0159706 0)
(1.00712 0.0125251 0)
(1.00731 0.0121949 0)
(1.00492 0.0165619 0)
(1.00875 0.0152319 0)
(1.01043 0.0166761 0)
(0.999358 0.00517121 0)
(1.00184 -0.00100191 0)
(1.00364 0.00813865 0)
(1.0022 0.00388685 0)
(1.00349 0.0107883 0)
(1.01468 0.00898463 0)
(1.00816 0.00160894 0)
(0.998865 0.00557906 0)
(1.00569 0.00478596 0)
(1.00113 0.00704743 0)
(1.00103 0.0066167 0)
(1.00207 0.00936974 0)
(1.00607 0.0165247 0)
(1.0072 0.0106215 0)
(1.00506 0.015607 0)
(1.00777 0.0128228 0)
(1.00849 0.0120361 0)
(1.00641 0.016508 0)
(1.0102 0.0152098 0)
(1.01207 0.0161218 0)
(0.999601 0.00506871 0)
(1.00131 -0.000882679 0)
(1.00452 0.00802931 0)
(1.00137 0.00387067 0)
(1.00457 0.0106741 0)
(1.01389 0.00873816 0)
(1.00737 0.00195845 0)
(0.999726 0.00574406 0)
(1.00698 0.00469146 0)
(1.00193 0.00706883 0)
(1.00149 0.00667421 0)
(1.0025 0.0092613 0)
(1.0064 0.0162357 0)
(1.00743 0.0108168 0)
(1.00562 0.0152426 0)
(1.00825 0.0130798 0)
(1.00937 0.0118932 0)
(1.0075 0.016378 0)
(1.01107 0.0152167 0)
(1.01308 0.0155687 0)
(0.99971 0.00496463 0)
(1.00075 -0.000760982 0)
(1.00531 0.00790571 0)
(1.001 0.00386609 0)
(1.00513 0.0105451 0)
(1.01305 0.00853429 0)
(1.00679 0.00225678 0)
(1.00051 0.00589568 0)
(1.00799 0.0045907 0)
(1.00241 0.00711389 0)
(1.00151 0.00675947 0)
(1.00259 0.00914352 0)
(1.00633 0.0159428 0)
(1.00744 0.010989 0)
(1.00595 0.0148759 0)
(1.00858 0.0133069 0)
(1.00999 0.0117717 0)
(1.00827 0.0161886 0)
(1.01144 0.0152561 0)
(1.0136 0.0150408 0)
(0.999744 0.00485987 0)
(1.00028 -0.000635845 0)
(1.00589 0.00775949 0)
(1.00098 0.00388198 0)
(1.00526 0.0104061 0)
(1.01228 0.0083611 0)
(1.00645 0.0025031 0)
(1.00113 0.0060441 0)
(1.00862 0.00449099 0)
(1.00266 0.00717836 0)
(1.00128 0.00687745 0)
(1.00253 0.00901625 0)
(1.00599 0.0156402 0)
(1.00732 0.011131 0)
(1.00606 0.0145069 0)
(1.00873 0.0135059 0)
(1.01035 0.0116673 0)
(1.0088 0.0159483 0)
(1.01145 0.0153321 0)
(1.0138 0.0145664 0)
(0.999751 0.00475328 0)
(0.999942 -0.0005041 0)
(1.00626 0.00758559 0)
(1.00113 0.00392242 0)
(1.00516 0.0102592 0)
(1.01166 0.00820669 0)
(1.00626 0.0027036 0)
(1.00158 0.00619948 0)
(1.00892 0.00439494 0)
(1.00282 0.00725702 0)
(1.00096 0.00702303 0)
(1.0025 0.00888008 0)
(1.00554 0.0153361 0)
(1.00714 0.0112453 0)
(1.00602 0.0141261 0)
(1.00876 0.0136762 0)
(1.01051 0.0115878 0)
(1.00919 0.0156596 0)
(1.01125 0.0154435 0)
(1.01381 0.0141677 0)
(0.999751 0.00464312 0)
(0.999739 -0.000362518 0)
(1.00646 0.00738471 0)
(1.00136 0.00398767 0)
(1.00496 0.0101004 0)
(1.01125 0.00807121 0)
(1.00611 0.00286159 0)
(1.00192 0.00636918 0)
(1.00897 0.0043091 0)
(1.00297 0.0073331 0)
(1.00067 0.00720519 0)
(1.00261 0.00872999 0)
(1.00513 0.0150322 0)
(1.00697 0.011338 0)
(1.00591 0.0137327 0)
(1.00872 0.0138223 0)
(1.01055 0.0115445 0)
(1.00952 0.0153102 0)
(1.01097 0.0155708 0)
(1.01375 0.0138691 0)
(0.999741 0.00452676 0)
(0.999657 -0.000207832 0)
(1.00652 0.00715518 0)
(1.00161 0.00407767 0)
(1.00474 0.00992601 0)
(1.01101 0.00795358 0)
(1.00595 0.00298145 0)
(1.0022 0.00655565 0)
(1.00888 0.00423156 0)
(1.00314 0.00739584 0)
(1.00044 0.00742521 0)
(1.00285 0.00856665 0)
(1.00482 0.0147284 0)
(1.00685 0.0114228 0)
(1.00581 0.013327 0)
(1.00865 0.0139377 0)
(1.01051 0.0115462 0)
(1.00984 0.0148912 0)
(1.01071 0.0156779 0)
(1.01366 0.0136963 0)
(0.999714 0.00440333 0)
(0.999683 -3.88954e-05 0)
(1.00647 0.00689771 0)
(1.00187 0.00419121 0)
(1.0045 0.00973145 0)
(1.0109 0.00785674 0)
(1.00575 0.00307392 0)
(1.00245 0.00675426 0)
(1.00873 0.00417204 0)
(1.00334 0.00742971 0)
(1.00026 0.00767418 0)
(1.0032 0.00840083 0)
(1.00465 0.0144222 0)
(1.00676 0.011517 0)
(1.00576 0.0129082 0)
(1.00857 0.0140119 0)
(1.01044 0.011608 0)
(1.01016 0.0144121 0)
(1.01049 0.015719 0)
(1.0135 0.0136628 0)
(0.999667 0.00427039 0)
(0.999804 0.000147324 0)
(1.00632 0.0066145 0)
(1.00216 0.00432471 0)
(1.00425 0.00951748 0)
(1.01085 0.00778182 0)
(1.00553 0.00314477 0)
(1.00266 0.0069563 0)
(1.00857 0.00413925 0)
(1.00354 0.00742169 0)
(1.00013 0.00795435 0)
(1.00359 0.00823965 0)
(1.0046 0.0140979 0)
(1.00669 0.0116285 0)
(1.00576 0.0124885 0)
(1.00848 0.0140355 0)
(1.01034 0.0117423 0)
(1.01044 0.0138997 0)
(1.01034 0.0156475 0)
(1.01328 0.0137648 0)
(0.999605 0.00412651 0)
(1 0.000351928 0)
(1.00609 0.00630705 0)
(1.00245 0.00447675 0)
(1.00399 0.00928532 0)
(1.0108 0.00772526 0)
(1.00531 0.00319604 0)
(1.00283 0.00715569 0)
(1.00844 0.00413141 0)
(1.00375 0.00737537 0)
(1.00005 0.00824991 0)
(1.00397 0.0080866 0)
(1.00468 0.0137463 0)
(1.0066 0.0117646 0)
(1.0058 0.0120781 0)
(1.00839 0.0139863 0)
(1.01023 0.0119453 0)
(1.01068 0.0134067 0)
(1.01027 0.0154309 0)
(1.013 0.0139602 0)
(0.99954 0.00397084 0)
(1.00025 0.000576002 0)
(1.00582 0.00597629 0)
(1.00273 0.00464479 0)
(1.00375 0.00903722 0)
(1.01071 0.00768272 0)
(1.00514 0.00324068 0)
(1.00294 0.00734185 0)
(1.00833 0.00416519 0)
(1.00397 0.0072846 0)
(1 0.00854641 0)
(1.00431 0.00795732 0)
(1.00485 0.0133608 0)
(1.00649 0.0119299 0)
(1.00588 0.0116934 0)
(1.00832 0.013847 0)
(1.01009 0.0121954 0)
(1.01086 0.0129844 0)
(1.01027 0.0150622 0)
(1.01267 0.0141539 0)
(0.999483 0.00380081 0)
(1.00051 0.000820863 0)
(1.00554 0.00562648 0)
(1.00296 0.004821 0)
(1.00354 0.00878109 0)
(1.01056 0.00764473 0)
(1.00501 0.00328471 0)
(1.003 0.00750363 0)
(1.00826 0.00423905 0)
(1.00419 0.00715932 0)
(0.999991 0.00883716 0)
(1.00461 0.0078649 0)
(1.00509 0.012934 0)
(1.00636 0.0121187 0)
(1.00596 0.0113656 0)
(1.00827 0.0136179 0)
(1.00995 0.0124633 0)
(1.01098 0.0126698 0)
(1.01034 0.0145689 0)
(1.01237 0.0142479 0)
(0.999443 0.00361845 0)
(1.00075 0.0010833 0)
(1.0053 0.00525992 0)
(1.00312 0.00500574 0)
(1.0034 0.00851548 0)
(1.01034 0.00760514 0)
(1.00493 0.00333536 0)
(1.00303 0.00763449 0)
(1.0082 0.00435187 0)
(1.00442 0.00700961 0)
(1 0.00911645 0)
(1.00486 0.00781956 0)
(1.00538 0.0124681 0)
(1.00624 0.0123119 0)
(1.00604 0.011111 0)
(1.00827 0.0133027 0)
(1.00981 0.0127101 0)
(1.01104 0.0124843 0)
(1.01045 0.0140108 0)
(1.01212 0.0141769 0)
(0.999425 0.00342115 0)
(1.00096 0.00136463 0)
(1.00511 0.00488279 0)
(1.00322 0.00518814 0)
(1.00331 0.00825219 0)
(1.01007 0.0075616 0)
(1.00489 0.00340258 0)
(1.00304 0.00772151 0)
(1.00816 0.00450532 0)
(1.00467 0.00683596 0)
(1.00003 0.00937144 0)
(1.00505 0.00782682 0)
(1.0057 0.0119737 0)
(1.00612 0.0124899 0)
(1.00608 0.0109429 0)
(1.00832 0.0129126 0)
(1.00969 0.012894 0)
(1.01103 0.0124151 0)
(1.01058 0.0134653 0)
(1.01196 0.0139279 0)
(0.999428 0.00321202 0)
(1.00111 0.00165882 0)
(1.00497 0.00450226 0)
(1.00326 0.00536207 0)
(1.00327 0.00799774 0)
(1.00978 0.00750354 0)
(1.00487 0.00349853 0)
(1.00304 0.00776757 0)
(1.0081 0.00468334 0)
(1.00494 0.00665433 0)
(1.00008 0.00958121 0)
(1.0052 0.00788701 0)
(1.00604 0.0114575 0)
(1.00603 0.0126414 0)
(1.00609 0.0108792 0)
(1.00842 0.0124756 0)
(1.00961 0.0129899 0)
(1.01098 0.0124391 0)
(1.01069 0.0129976 0)
(1.01189 0.0135376 0)
(0.999451 0.00299012 0)
(1.00119 0.00196662 0)
(1.00489 0.00411822 0)
(1.00327 0.00552806 0)
(1.00324 0.00775423 0)
(1.00949 0.00742054 0)
(1.00485 0.00362656 0)
(1.00304 0.00778182 0)
(1.00803 0.00487988 0)
(1.00522 0.00647761 0)
(1.00014 0.00973734 0)
(1.00529 0.00800109 0)
(1.00639 0.0109259 0)
(1.00598 0.0127415 0)
(1.00606 0.010919 0)
(1.00854 0.0120187 0)
(1.00959 0.0129773 0)
(1.01089 0.0125249 0)
(1.01075 0.0126435 0)
(1.01188 0.0130712 0)
(0.999488 0.00275938 0)
(1.00122 0.00228004 0)
(1.00485 0.00374161 0)
(1.00326 0.00566977 0)
(1.00321 0.00753744 0)
(1.00921 0.00730591 0)
(1.00483 0.00377874 0)
(1.00303 0.00777111 0)
(1.00794 0.00508718 0)
(1.00549 0.00630962 0)
(1.00021 0.00984513 0)
(1.00533 0.00816034 0)
(1.00674 0.0103968 0)
(1.00597 0.0127634 0)
(1.00597 0.0110518 0)
(1.00868 0.0115787 0)
(1.00962 0.0128468 0)
(1.01079 0.0126312 0)
(1.01076 0.0124044 0)
(1.0119 0.0126232 0)
(0.999537 0.00252119 0)
(1.00121 0.00259471 0)
(1.00482 0.00337963 0)
(1.00325 0.00578057 0)
(1.00317 0.00735369 0)
(1.00894 0.00715246 0)
(1.00481 0.00395027 0)
(1.00303 0.00774687 0)
(1.00783 0.00529148 0)
(1.00576 0.00616649 0)
(1.0003 0.00991006 0)
(1.00532 0.00835865 0)
(1.00709 0.0098985 0)
(1.00602 0.0126909 0)
(1.00584 0.0112587 0)
(1.00881 0.0111907 0)
(1.00973 0.0126002 0)
(1.01069 0.0127243 0)
(1.0107 0.0122521 0)
(1.0119 0.0122442 0)
(0.999594 0.00227632 0)
(1.00115 0.00290705 0)
(1.0048 0.00303932 0)
(1.00324 0.00584919 0)
(1.00312 0.00721715 0)
(1.00867 0.00695515 0)
(1.00479 0.00412984 0)
(1.00302 0.0077177 0)
(1.00771 0.00548186 0)
(1.00603 0.00603941 0)
(1.00041 0.00992481 0)
(1.00526 0.00858669 0)
(1.00742 0.00944718 0)
(1.00615 0.0125159 0)
(1.00568 0.0115177 0)
(1.00891 0.0108854 0)
(1.0099 0.0122384 0)
(1.01062 0.0127791 0)
(1.01058 0.0121748 0)
(1.01186 0.0119262 0)
(0.999652 0.00203039 0)
(1.00107 0.0032098 0)
(1.00477 0.00272902 0)
(1.00325 0.00586295 0)
(1.00304 0.00713134 0)
(1.00842 0.00672503 0)
(1.00477 0.00430986 0)
(1.00301 0.00769651 0)
(1.00756 0.00564976 0)
(1.00629 0.00591952 0)
(1.00056 0.00989922 0)
(1.00515 0.00883389 0)
(1.00772 0.00904966 0)
(1.00633 0.0122358 0)
(1.00551 0.0117937 0)
(1.00893 0.0107009 0)
(1.01012 0.0117808 0)
(1.0106 0.0127575 0)
(1.01042 0.0121918 0)
(1.01177 0.0116577 0)
(0.999711 0.00178158 0)
(1.00098 0.00350075 0)
(1.00472 0.00246073 0)
(1.00327 0.0058047 0)
(1.00294 0.00710461 0)
(1.00816 0.00647875 0)
(1.00475 0.00446896 0)
(1.00299 0.00769487 0)
(1.0074 0.00580827 0)
(1.00654 0.00580604 0)
(1.00073 0.00983944 0)
(1.00501 0.00909712 0)
(1.00798 0.00871837 0)
(1.0066 0.0118594 0)
(1.00534 0.0120411 0)
(1.00888 0.0106594 0)
(1.01037 0.0112758 0)
(1.01066 0.0125949 0)
(1.01023 0.0122865 0)
(1.01162 0.0114677 0)
(0.999769 0.00153765 0)
(1.00086 0.00376682 0)
(1.00466 0.00224772 0)
(1.0033 0.00565942 0)
(1.00283 0.00713382 0)
(1.00789 0.00622958 0)
(1.00474 0.00459258 0)
(1.00297 0.00772102 0)
(1.00722 0.00596307 0)
(1.00678 0.00569755 0)
(1.00095 0.00974198 0)
(1.00485 0.00936935 0)
(1.00819 0.00846558 0)
(1.00693 0.0114048 0)
(1.00522 0.0122161 0)
(1.00873 0.0107494 0)
(1.0106 0.010803 0)
(1.01082 0.0122601 0)
(1.01005 0.0123802 0)
(1.01139 0.01141 0)
(0.999826 0.0012996 0)
(1.00073 0.00400185 0)
(1.00456 0.00210054 0)
(1.00334 0.00542807 0)
(1.0027 0.00719524 0)
(1.00762 0.0059971 0)
(1.00475 0.00466864 0)
(1.00295 0.00777211 0)
(1.00701 0.0061238 0)
(1.00702 0.00559413 0)
(1.00122 0.00960414 0)
(1.00467 0.00964071 0)
(1.00833 0.00830269 0)
(1.00731 0.0108933 0)
(1.00516 0.0122876 0)
(1.0085 0.0109326 0)
(1.01077 0.0104341 0)
(1.01106 0.0117869 0)
(1.00992 0.01237 0)
(1.01108 0.0114879 0)
(0.999879 0.00106876 0)
(1.0006 0.00420317 0)
(1.00444 0.00201993 0)
(1.00339 0.00511876 0)
(1.00256 0.00727783 0)
(1.00732 0.00580481 0)
(1.00477 0.00467339 0)
(1.00293 0.00783072 0)
(1.00678 0.00630509 0)
(1.00723 0.00548956 0)
(1.00153 0.00941511 0)
(1.00448 0.00990001 0)
(1.00839 0.00823513 0)
(1.00772 0.0103519 0)
(1.0052 0.0122386 0)
(1.00822 0.0111685 0)
(1.01085 0.0102012 0)
(1.01136 0.0112465 0)
(1.00991 0.0121967 0)
(1.01075 0.011614 0)
(0.999929 0.000853457 0)
(1.00046 0.00435663 0)
(1.00428 0.00200542 0)
(1.00345 0.00475384 0)
(1.00242 0.00735026 0)
(1.007 0.00567313 0)
(1.00479 0.00461291 0)
(1.00292 0.00787913 0)
(1.00651 0.00651218 0)
(1.00743 0.00539559 0)
(1.00189 0.00916905 0)
(1.0043 0.010129 0)
(1.00838 0.00826495 0)
(1.00815 0.00981577 0)
(1.00533 0.0120627 0)
(1.00792 0.0114105 0)
(1.01081 0.0101005 0)
(1.01167 0.0107121 0)
(1.01003 0.0118736 0)
(1.01044 0.0116733 0)
(0.999975 0.000652449 0)
(1.00032 0.00446033 0)
(1.00408 0.00205668 0)
(1.00352 0.00435755 0)
(1.00229 0.00738517 0)
(1.00665 0.00561921 0)
(1.00483 0.00449232 0)
(1.00294 0.00789223 0)
(1.00622 0.00675487 0)
(1.00758 0.00534094 0)
(1.0023 0.00887234 0)
(1.00415 0.010305 0)
(1.00828 0.00838275 0)
(1.00856 0.00931797 0)
(1.00557 0.0117567 0)
(1.00763 0.011609 0)
(1.01065 0.0101178 0)
(1.01195 0.0102364 0)
(1.01024 0.0114467 0)
(1.01022 0.0116068 0)
(1.00002 0.000470472 0)
(1.00018 0.0045103 0)
(1.00385 0.00216393 0)
(1.00358 0.00395247 0)
(1.00218 0.00736537 0)
(1.00628 0.00565258 0)
(1.00487 0.00433547 0)
(1.00298 0.00784715 0)
(1.00592 0.00703855 0)
(1.00768 0.00534558 0)
(1.00275 0.00852847 0)
(1.00405 0.0104053 0)
(1.0081 0.00857016 0)
(1.00893 0.00890347 0)
(1.0059 0.011333 0)
(1.00739 0.0117111 0)
(1.01038 0.0102286 0)
(1.01214 0.00985213 0)
(1.01054 0.0109554 0)
(1.01012 0.0114204 0)
(1.00006 0.000311218 0)
(1.00005 0.00449858 0)
(1.00359 0.00231857 0)
(1.00364 0.00356444 0)
(1.00209 0.00726742 0)
(1.00587 0.00577266 0)
(1.0049 0.00417777 0)
(1.00307 0.00773058 0)
(1.00561 0.00733801 0)
(1.00772 0.00543052 0)
(1.00321 0.00815704 0)
(1.00401 0.0104143 0)
(1.00786 0.00879849 0)
(1.00923 0.00860255 0)
(1.00631 0.0108296 0)
(1.00723 0.0116747 0)
(1.01003 0.0103887 0)
(1.01222 0.00959272 0)
(1.01087 0.0104329 0)
(1.01014 0.0111385 0)
(1.00009 0.000176169 0)
(0.999929 0.00442523 0)
(1.00329 0.00250931 0)
(1.00369 0.0032162 0)
(1.00202 0.00707467 0)
(1.00544 0.00596626 0)
(1.0049 0.00405105 0)
(1.00319 0.00752317 0)
(1.0053 0.00761351 0)
(1.00768 0.00560526 0)
(1.00369 0.00779332 0)
(1.00404 0.0103209 0)
(1.00758 0.00903073 0)
(1.00943 0.0084187 0)
(1.00678 0.0103005 0)
(1.00718 0.0114935 0)
(1.00965 0.0105302 0)
(1.01216 0.00947112 0)
(1.0112 0.00993148 0)
(1.01028 0.0107666 0)
(1.00011 6.7485e-05 0)
(0.999821 0.0042915 0)
(1.00297 0.00272483 0)
(1.00371 0.0029222 0)
(1.002 0.00679385 0)
(1.00501 0.0061929 0)
(1.00487 0.00399995 0)
(1.00335 0.00723343 0)
(1.00502 0.00782293 0)
(1.00758 0.00585981 0)
(1.00416 0.00746671 0)
(1.00414 0.0101236 0)
(1.00729 0.00922783 0)
(1.00954 0.00833821 0)
(1.00724 0.0097968 0)
(1.00723 0.0111922 0)
(1.00928 0.0105918 0)
(1.01198 0.00945076 0)
(1.01146 0.00951574 0)
(1.0105 0.0103157 0)
(1.00014 -1.35477e-05 0)
(0.999738 0.0040953 0)
(1.00262 0.00295773 0)
(1.00372 0.00269773 0)
(1.00201 0.00643143 0)
(1.00458 0.00641396 0)
(1.00479 0.00405379 0)
(1.00354 0.00690091 0)
(1.00479 0.0079348 0)
(1.00742 0.00616586 0)
(1.00458 0.00721263 0)
(1.00431 0.00984303 0)
(1.007 0.0093586 0)
(1.00953 0.0083292 0)
(1.00767 0.00934617 0)
(1.00738 0.0108055 0)
(1.00895 0.0105592 0)
(1.0117 0.00947359 0)
(1.01161 0.00922583 0)
(1.01078 0.0098304 0)
(1.00015 -6.58561e-05 0)
(0.999674 0.00384532 0)
(1.00228 0.00318142 0)
(1.00367 0.00256174 0)
(1.00206 0.00599252 0)
(1.00416 0.00659726 0)
(1.00464 0.00422333 0)
(1.00374 0.00657225 0)
(1.00461 0.00793611 0)
(1.00721 0.00647125 0)
(1.00494 0.00703921 0)
(1.00453 0.00950834 0)
(1.00676 0.00940983 0)
(1.00945 0.00836762 0)
(1.00805 0.00896971 0)
(1.0076 0.0103629 0)
(1.0087 0.0104342 0)
(1.01137 0.00948403 0)
(1.01165 0.00904648 0)
(1.01105 0.00938682 0)
(1.00016 -9.58562e-05 0)
(0.999635 0.00356049 0)
(1.00193 0.00338188 0)
(1.0036 0.00251849 0)
(1.00215 0.00550674 0)
(1.00379 0.00670344 0)
(1.00446 0.00447747 0)
(1.00392 0.0062938 0)
(1.0045 0.00783867 0)
(1.00698 0.00674638 0)
(1.00523 0.00694627 0)
(1.00479 0.00915046 0)
(1.00656 0.00937517 0)
(1.00929 0.00841987 0)
(1.00835 0.00867735 0)
(1.00786 0.00990079 0)
(1.00854 0.0102285 0)
(1.01102 0.00946004 0)
(1.01157 0.00893115 0)
(1.01126 0.00904226 0)
(1.00017 -0.000102218 0)
(0.999624 0.00325225 0)
(1.0016 0.00354091 0)
(1.00348 0.00256531 0)
(1.00225 0.0050182 0)
(1.00348 0.00671949 0)
(1.00424 0.00476837 0)
(1.00407 0.00608317 0)
(1.00445 0.00766378 0)
(1.00675 0.00696354 0)
(1.00546 0.00691756 0)
(1.00505 0.00880532 0)
(1.00642 0.00926493 0)
(1.0091 0.00845916 0)
(1.00857 0.00846524 0)
(1.00815 0.00946141 0)
(1.00846 0.00995134 0)
(1.0107 0.00939097 0)
(1.01143 0.00883165 0)
(1.01138 0.00879303 0)
(1.00016 -8.88486e-05 0)
(0.999637 0.002943 0)
(1.0013 0.00363502 0)
(1.00331 0.00268323 0)
(1.00237 0.00456081 0)
(1.00324 0.00663847 0)
(1.004 0.00507118 0)
(1.00418 0.00595734 0)
(1.00443 0.00743995 0)
(1.00653 0.00709566 0)
(1.00561 0.00691997 0)
(1.00531 0.00848067 0)
(1.00632 0.00908922 0)
(1.00889 0.00845601 0)
(1.0087 0.00829804 0)
(1.00841 0.00906317 0)
(1.00845 0.00962074 0)
(1.0104 0.0092666 0)
(1.01124 0.00871898 0)
(1.01142 0.00858365 0)
(1.00016 -6.41388e-05 0)
(0.999673 0.00264976 0)
(1.00104 0.00366377 0)
(1.0031 0.00284118 0)
(1.00249 0.00414509 0)
(1.00307 0.00644111 0)
(1.00375 0.0053555 0)
(1.00424 0.00594467 0)
(1.00445 0.00723815 0)
(1.00633 0.00718632 0)
(1.00571 0.006963 0)
(1.00555 0.00820215 0)
(1.00629 0.00886517 0)
(1.00868 0.00840578 0)
(1.00877 0.00814918 0)
(1.00866 0.00869898 0)
(1.00851 0.00925832 0)
(1.01016 0.00908188 0)
(1.01102 0.00858155 0)
(1.0114 0.0083629 0)
(1.00015 -3.16449e-05 0)
(0.999721 0.00236983 0)
(1.00082 0.00363243 0)
(1.00287 0.00303139 0)
(1.00259 0.00381873 0)
(1.00297 0.00613997 0)
(1.00353 0.00554488 0)
(1.00426 0.00595432 0)
(1.00448 0.00702359 0)
(1.00617 0.00720174 0)
(1.00577 0.00701193 0)
(1.00575 0.00799167 0)
(1.00627 0.00865382 0)
(1.00848 0.0083721 0)
(1.00878 0.00808269 0)
(1.00886 0.00843579 0)
(1.0086 0.00893978 0)
(1.00997 0.00889989 0)
(1.01079 0.00848134 0)
(1.01134 0.00818914 0)
(1.00014 1.02753e-05 0)
(0.999787 0.00213486 0)
(1.00065 0.00353563 0)
(1.00263 0.00320816 0)
(1.00266 0.00359695 0)
(1.00293 0.005815 0)
(1.00334 0.00568276 0)
(1.00422 0.00601438 0)
(1.0045 0.0068347 0)
(1.00605 0.00713667 0)
(1.00581 0.00698411 0)
(1.00594 0.007737 0)
(1.00631 0.00835002 0)
(1.00832 0.00820392 0)
(1.00875 0.00793764 0)
(1.00901 0.00814675 0)
(1.00871 0.00856519 0)
(1.00983 0.00861838 0)
(1.01056 0.00831921 0)
(1.01122 0.00798756 0)
(1.00013 3.76912e-05 0)
(0.999854 0.00194801 0)
(1.00052 0.00341373 0)
(1.00238 0.00338426 0)
(1.00269 0.00346403 0)
(1.00294 0.00547629 0)
(1.00321 0.00571105 0)
(1.00417 0.00606346 0)
(1.00451 0.00667908 0)
(1.00592 0.0070743 0)
(1.0058 0.00699355 0)
(1.00606 0.00757454 0)
(1.00634 0.00811132 0)
(1.00817 0.00805699 0)
(1.0087 0.00781462 0)
(1.00911 0.00792943 0)
(1.00882 0.00825575 0)
(1.00976 0.00833483 0)
(1.01035 0.00814494 0)
(1.01108 0.00781256 0)
(1.00012 7.95047e-05 0)
(0.999932 0.00175295 0)
(1.00043 0.0031705 0)
(1.00213 0.00347369 0)
(1.00268 0.00339014 0)
(1.00295 0.00520636 0)
(1.00312 0.00569337 0)
(1.0041 0.00611263 0)
(1.00452 0.00655134 0)
(1.00585 0.00696537 0)
(1.00581 0.0069485 0)
(1.00617 0.00740591 0)
(1.00639 0.00785758 0)
(1.00805 0.0078692 0)
(1.00862 0.00765534 0)
(1.00917 0.00770434 0)
(1.00891 0.00797662 0)
(1.0097 0.00805332 0)
(1.01016 0.0079417 0)
(1.0109 0.00764712 0)
(1.00011 0.000101162 0)
(0.999986 0.00162694 0)
(1.00038 0.00293695 0)
(1.00194 0.00354625 0)
(1.00267 0.00340615 0)
(1.00302 0.00500191 0)
(1.00308 0.00562607 0)
(1.00403 0.0061301 0)
(1.00449 0.00643498 0)
(1.00577 0.0068271 0)
(1.00579 0.00686282 0)
(1.00624 0.00724525 0)
(1.00643 0.00761354 0)
(1.00795 0.00766369 0)
(1.00855 0.00749205 0)
(1.00922 0.00747529 0)
(1.009 0.0077027 0)
(1.00968 0.00778527 0)
(1.01003 0.00772074 0)
(1.01074 0.00747923 0)
(1.0001 0.000119827 0)
(1.00005 0.00154158 0)
(1.00037 0.00277057 0)
(1.00176 0.00360916 0)
(1.00262 0.00344381 0)
(1.00306 0.00479342 0)
(1.00307 0.00547749 0)
(1.00395 0.0060894 0)
(1.00447 0.0063174 0)
(1.00571 0.00668749 0)
(1.00579 0.00676196 0)
(1.0063 0.00710841 0)
(1.00646 0.00740697 0)
(1.00786 0.00745563 0)
(1.00845 0.00731841 0)
(1.00922 0.00725114 0)
(1.00907 0.00740489 0)
(1.00966 0.00749278 0)
(1.0099 0.00746545 0)
(1.01057 0.00725586 0)
(1.00009 0.000151213 0)
(1.00008 0.0014646 0)
(1.00038 0.00259063 0)
(1.00162 0.00361106 0)
(1.00256 0.00344906 0)
(1.0031 0.0045877 0)
(1.00309 0.0052648 0)
(1.00389 0.00597391 0)
(1.00441 0.00615415 0)
(1.00563 0.0064836 0)
(1.00576 0.00657607 0)
(1.00632 0.00689882 0)
(1.00646 0.00715584 0)
(1.00776 0.00719449 0)
(1.00836 0.00708238 0)
(1.00919 0.00700883 0)
(1.00912 0.00710465 0)
(1.00966 0.00718392 0)
(1.00981 0.00721352 0)
(1.01041 0.00703007 0)
(1.00008 0.000155379 0)
(1.00013 0.00146562 0)
(1.00041 0.00246095 0)
(1.0015 0.00357148 0)
(1.00247 0.00344005 0)
(1.00311 0.00440194 0)
(1.00311 0.0050328 0)
(1.00385 0.00581779 0)
(1.00436 0.0060053 0)
(1.00557 0.00631249 0)
(1.00576 0.00642615 0)
(1.00636 0.006731 0)
(1.00647 0.0069742 0)
(1.00767 0.00702297 0)
(1.00825 0.00691015 0)
(1.00914 0.00681653 0)
(1.00913 0.00688297 0)
(1.00968 0.00691059 0)
(1.00973 0.00697887 0)
(1.01027 0.00682568 0)
(1.00007 0.000157665 0)
(1.00016 0.00147094 0)
(1.00043 0.00235985 0)
(1.00139 0.00350278 0)
(1.00238 0.00343134 0)
(1.00311 0.00427766 0)
(1.00315 0.00486086 0)
(1.00381 0.00568743 0)
(1.00428 0.00589642 0)
(1.00548 0.00616882 0)
(1.00573 0.00624431 0)
(1.00637 0.00651066 0)
(1.00647 0.00672338 0)
(1.00757 0.00678009 0)
(1.00813 0.00667508 0)
(1.00907 0.00653266 0)
(1.00912 0.00658324 0)
(1.00966 0.00657291 0)
(1.00967 0.00664597 0)
(1.01012 0.00655099 0)
(1.00006 0.000167822 0)
(1.00018 0.00142143 0)
(1.00047 0.00219153 0)
(1.0013 0.00340879 0)
(1.00228 0.00341581 0)
(1.00307 0.00416427 0)
(1.00319 0.0046699 0)
(1.00379 0.00550266 0)
(1.00421 0.00572995 0)
(1.00539 0.00599943 0)
(1.00568 0.00604089 0)
(1.00636 0.00628252 0)
(1.00645 0.00648548 0)
(1.00747 0.00655423 0)
(1.00797 0.00648968 0)
(1.00895 0.00631612 0)
(1.00908 0.00632446 0)
(1.00963 0.00630047 0)
(1.00963 0.0063413 0)
(1.01002 0.00628728 0)
(1.00007 0.000170414 0)
(1.00018 0.00138707 0)
(1.0005 0.00203452 0)
(1.00126 0.00328726 0)
(1.0022 0.0033887 0)
(1.00303 0.00408262 0)
(1.00322 0.00451478 0)
(1.00378 0.00533781 0)
(1.00416 0.00558745 0)
(1.00528 0.00585219 0)
(1.00563 0.00586096 0)
(1.00636 0.00604318 0)
(1.00644 0.00622561 0)
(1.00739 0.00629142 0)
(1.00783 0.00626629 0)
(1.00881 0.00610824 0)
(1.009 0.00606404 0)
(1.00957 0.00602595 0)
(1.00957 0.00604203 0)
(1.00992 0.00598266 0)
(1.00007 0.000161997 0)
(1.00019 0.00139285 0)