/*--------------------------------*- C++ -*----------------------------------*\
| =========                 |                                                 |
| \\      /  F ield         | OpenFOAM: The Open Source CFD Toolbox           |
|  \\    /   O peration     | Version:  v2012                                 |
|   \\  /    A nd           | Website:  www.openfoam.com                      |
|    \\/     M anipulation  |                                                 |
\*---------------------------------------------------------------------------*/
FoamFile
{
    version     2.0;
    format      ascii;
    class       volScalarField;
    location    "11";
    object      p;
}
// * * * * * * * * * * * * * * * * * * * * * * * * * * * * * * * * * * * * * //

dimensions      [0 2 -2 0 0 0 0];


internalField   nonuniform List<scalar> 
9600
(
-4.88808e-11
0.00329831
0.00482031
0.000176018
-0.00423215
0.00199201
0.00237331
0.0046348
0.00767081
0.00657195
0.00787982
0.00974691
0.00972923
0.0112207
0.0112111
0.0127427
0.013052
0.0155889
0.0183216
0.0243256
2.23268e-06
0.00330416
0.004795
0.000175077
-0.00422004
0.00199864
0.00236319
0.00463175
0.0076566
0.00659574
0.00788777
0.00974625
0.00973695
0.0112081
0.0112211
0.0127312
0.0130686
0.0155651
0.0183446
0.0236848
7.02017e-06
0.00331137
0.00476183
0.000181376
-0.00421317
0.00200065
0.00235238
0.00462692
0.00763829
0.00664968
0.00789868
0.00974277
0.00975182
0.0111889
0.0112392
0.0127121
0.0130925
0.0155228
0.0183345
0.0230885
1.67775e-05
0.00332189
0.00471854
0.000195484
-0.00418926
0.00200115
0.00234751
0.00462742
0.00762088
0.00672545
0.00791215
0.00973799
0.00977455
0.0111677
0.011264
0.0126877
0.0131202
0.0154675
0.0182988
0.0225201
3.47767e-05
0.00333275
0.00466258
0.000220153
-0.00413961
0.00200329
0.00235254
0.0046304
0.00760378
0.00681754
0.00793098
0.0097321
0.00980242
0.0111467
0.0112935
0.0126607
0.0131494
0.0154038
0.0182392
0.0219872
6.24419e-05
0.00333936
0.00459699
0.000255141
-0.00405652
0.00201203
0.00236868
0.00463308
0.0075896
0.00692181
0.00795673
0.00972451
0.00983386
0.0111264
0.0113264
0.0126321
0.0131788
0.0153343
0.0181581
0.0214841
9.91996e-05
0.00334027
0.00452761
0.000299966
-0.00394024
0.00202923
0.00239456
0.00463612
0.00758034
0.00703476
0.00798943
0.00971457
0.00986753
0.0111064
0.0113618
0.0126025
0.0132067
0.0152609
0.018055
0.0210077
0.000143224
0.00333636
0.00445976
0.000354283
-0.00379541
0.00205311
0.00242694
0.00463966
0.00757596
0.00715268
0.00802713
0.00970167
0.00990228
0.0110864
0.0113986
0.012572
0.0132309
0.0151855
0.01793
0.0205566
0.000192326
0.00332935
0.00439649
0.000418265
-0.00362871
0.00207937
0.00246138
0.0046424
0.00757504
0.00727092
0.00806653
0.00968535
0.00993717
0.0110663
0.0114358
0.0125412
0.0132497
0.0151096
0.0177839
0.020129
0.000244708
0.00332081
0.00433852
0.000492342
-0.00344602
0.00210347
0.00249416
0.00464305
0.00757561
0.00738436
0.00810397
0.00966532
0.00997138
0.0110462
0.0114724
0.012511
0.0132617
0.0150346
0.0176192
0.0197233
0.000299299
0.00331195
0.00428512
0.000576405
-0.00325138
0.00212294
0.00252402
0.00464127
0.00757588
0.00748861
0.00813622
0.00964154
0.0100043
0.0110266
0.0115073
0.012482
0.0132657
0.0149608
0.0174395
0.0193381
0.000355635
0.00330364
0.0042349
0.000669231
-0.00304758
0.00213798
0.00255208
0.00463799
0.00757507
0.00758065
0.00816103
0.00961427
0.0100353
0.011008
0.0115394
0.0124545
0.013261
0.0148873
0.0172484
0.0189734
0.00041359
0.00329631
0.00418629
0.000768929
-0.00283706
0.00215047
0.00258162
0.00463512
0.00757346
0.00765934
0.0081775
0.00958413
0.0100641
0.0109907
0.0115678
0.0124283
0.0132468
0.0148131
0.0170494
0.0186337
0.000473169
0.00329
0.00413824
0.000873661
-0.00262193
0.00216258
0.00261541
0.00463457
0.00757205
0.00772542
0.00818617
0.00955202
0.0100906
0.0109751
0.0115918
0.012403
0.0132229
0.0147359
0.016844
0.0182896
0.000534394
0.00328459
0.00409041
0.000981918
-0.00240348
0.00217582
0.00265478
0.00463725
0.00757214
0.00778081
0.00818842
0.00951902
0.0101143
0.0109616
0.011611
0.0123777
0.0131898
0.0146533
0.0166329
0.017953
0.000597257
0.00327998
0.00404302
0.00109249
-0.00218223
0.00219113
0.0026994
0.00464286
0.00757476
0.00782783
0.00818574
0.0094862
0.0101353
0.01095
0.0116252
0.0123513
0.0131482
0.0145639
0.0164168
0.0176222
0.000661729
0.00327619
0.00399652
0.00120445
-0.00195843
0.00220894
0.0027483
0.00465044
0.00758046
0.00786871
0.00817929
0.00945446
0.0101535
0.0109401
0.0116345
0.0123227
0.0130984
0.014467
0.0161971
0.0172951
0.000727808
0.00327329
0.00395138
0.00131709
-0.00173209
0.00222932
0.00280046
0.00465907
0.00758952
0.0079054
0.00816971
0.00942442
0.0101691
0.0109313
0.0116393
0.0122911
0.0130405
0.0143624
0.0159751
0.0169709
0.000795519
0.00327127
0.00390807
0.0014299
-0.0015032
0.00225248
0.00285505
0.00466816
0.00760177
0.00793946
0.00815732
0.0093964
0.0101822
0.0109226
0.0116399
0.0122561
0.0129742
0.0142503
0.0157521
0.0166495
0.000864905
0.00327009
0.00386709
0.00154257
-0.001272
0.0022787
0.00291174
0.00467751
0.0076168
0.00797228
0.00814229
0.00937035
0.0101934
0.0109132
0.0116361
0.0122173
0.0128993
0.0141309
0.0155292
0.0163313
0.000936024
0.00326974
0.00382889
0.00165487
-0.00103874
0.00230816
0.00297029
0.00468716
0.00763411
0.00800503
0.00812462
0.00934585
0.0102037
0.0109024
0.0116279
0.0121746
0.0128158
0.0140048
0.0153067
0.0160168
0.00100895
0.0032702
0.0037939
0.0017667
-0.000803695
0.00234113
0.00303049
0.00469727
0.0076531
0.00803947
0.00810447
0.00932243
0.0102136
0.0108896
0.0116146
0.0121278
0.012724
0.0138721
0.0150858
0.0157057
0.00108379
0.00327147
0.0037625
0.001878
-0.000567262
0.00237784
0.00309227
0.00470812
0.00767314
0.00807515
0.00808214
0.00929947
0.0102238
0.0108744
0.0115953
0.0120774
0.0126238
0.0137331
0.0148685
0.0153975
0.00116067
0.00327351
0.00373502
0.00198879
-0.000329851
0.00241852
0.00315554
0.00472003
0.00769362
0.00811252
0.00805794
0.00927619
0.0102348
0.0108566
0.0115695
0.0120234
0.0125149
0.0135869
0.0146571
0.015093
0.00123974
0.00327626
0.0037117
0.00209912
-9.19304e-05
0.00246343
0.0032202
0.00473335
0.007714
0.00815221
0.00803217
0.00925158
0.0102471
0.0108359
0.0115361
0.0119664
0.0123981
0.0134312
0.0144528
0.014797
0.00132115
0.0032797
0.00369276
0.00220909
0.000145904
0.00251283
0.00328632
0.00474824
0.0077336
0.00819477
0.0080055
0.00922448
0.0102611
0.010813
0.0114937
0.0119066
0.0122757
0.0132634
0.0142542
0.0145169
0.00140506
0.00328387
0.00367832
0.0023189
0.000383151
0.00256695
0.00335394
0.00476502
0.00775173
0.00824047
0.00797879
0.00919387
0.0102768
0.0107888
0.0114407
0.0118433
0.0121511
0.013083
0.0140564
0.0142577
0.00149162
0.00328882
0.00366837
0.00242872
0.000619474
0.00262595
0.00342301
0.0047841
0.00776783
0.00828931
0.00795278
0.00915862
0.0102941
0.0107647
0.0113764
0.0117752
0.0120274
0.0128923
0.0138533
0.0140187
0.00158095
0.00329469
0.00366289
0.00253874
0.000854424
0.00269003
0.00349365
0.00480589
0.00778133
0.0083413
0.00792849
0.00911733
0.0103118
0.0107424
0.0113013
0.0117008
0.0119059
0.0126948
0.0136416
0.013795
0.00167318
0.00330169
0.00366176
0.00264921
0.00108768
0.00275919
0.00356605
0.00483087
0.00779157
0.00839624
0.00790723
0.00906909
0.0103282
0.0107229
0.0112161
0.0116185
0.0117871
0.0124939
0.0134197
0.0135797
0.00176842
0.00331016
0.00366479
0.00276029
0.00131917
0.00283331
0.00364015
0.00485962
0.00779784
0.00845356
0.00789035
0.00901329
0.0103421
0.0107077
0.0111217
0.0115269
0.0116725
0.0122924
0.0131877
0.0133674
0.00186675
0.00332046
0.00367181
0.00287211
0.00154889
0.00291226
0.00371582
0.00489275
0.00779971
0.00851236
0.00787941
0.00894957
0.0103511
0.0106977
0.0110193
0.0114244
0.0115633
0.0120951
0.012947
0.0131865
0.0019682
0.00333302
0.00368261
0.00298468
0.00177702
0.00299597
0.0037926
0.00493093
0.00779731
0.00857119
0.00787564
0.00887846
0.0103524
0.0106936
0.0109111
0.0113089
0.0114589
0.0119075
0.0126993
0.0129955
0.00207277
0.00334831
0.00369708
0.00309787
0.00200375
0.00308449
0.00387006
0.00497473
0.00779111
0.00862829
0.00787946
0.00880095
0.0103436
0.0106954
0.0108004
0.0111787
0.0113567
0.0117337
0.012449
0.0127732
0.00218045
0.00336674
0.00371516
0.00321158
0.00222921
0.00317804
0.00394775
0.00502424
0.00778188
0.00868237
0.00789079
0.00871797
0.0103227
0.0107025
0.0106909
0.0110335
0.011253
0.011575
0.012203
0.012553
0.00229128
0.00338885
0.00373675
0.00332562
0.00245332
0.00327699
0.00402514
0.00507917
0.00777093
0.0087326
0.00790945
0.00863065
0.0102879
0.0107134
0.0105859
0.0108746
0.0111448
0.0114319
0.0119657
0.0122924
0.00240524
0.00341515
0.00376203
0.00343973
0.00267573
0.00338179
0.0041019
0.00513882
0.00775965
0.00877869
0.00793507
0.00853984
0.0102369
0.0107262
0.0104891
0.0107037
0.0110284
0.0113041
0.011744
0.0120255
0.00252234
0.00344578
0.00379144
0.00355396
0.00289592
0.00349343
0.00417818
0.00520153
0.00774828
0.00882069
0.00796772
0.00844645
0.0101679
0.0107386
0.010405
0.0105234
0.0108982
0.0111895
0.011544
0.0117654
0.00264277
0.00348066
0.00382549
0.00366862
0.00311299
0.00361294
0.00425467
0.00526546
0.00773636
0.0088587
0.00800792
0.00835219
0.0100784
0.0107465
0.0103371
0.0103384
0.0107505
0.011083
0.0113696
0.0115218
0.00276665
0.00351987
0.00386451
0.00378429
0.00332553
0.00374044
0.00433261
0.0053296
0.00772399
0.00889235
0.00805574
0.00825994
0.00996735
0.0107444
0.0102875
0.0101554
0.0105833
0.0109778
0.0112212
0.0113031
0.00289412
0.00356343
0.00390851
0.00390205
0.00353227
0.00387532
0.00441386
0.00539324
0.00771061
0.00892041
0.00811127
0.00817361
0.00983481
0.010726
0.0102569
0.00998252
0.0103959
0.010866
0.0110962
0.0111152
0.00302529
0.00361128
0.00395775
0.00402294
0.00373292
0.00401624
0.00450076
0.00545654
0.00769424
0.00894153
0.00817443
0.00809699
0.00968251
0.0106853
0.0102431
0.00982904
0.0101904
0.0107385
0.0109907
0.0109609
0.00316009
0.00366487
0.00402744
0.00414791
0.00392847
0.00416059
0.00459474
0.00552028
0.00767339
0.00895462
0.00824411
0.00803371
0.00951417
0.0106165
0.0102409
0.00970343
0.00997349
0.010587
0.0108977
0.0108398
0.00329846
0.0037245
0.00408346
0.00427732
0.004121
0.00430557
0.00469522
0.00558653
0.00764837
0.00895688
0.00831788
0.00798815
0.0093356
0.0105166
0.0102421
0.00961105
0.00975751
0.0104058
0.0108051
0.0107492
0.0034402
0.00379137
0.00413938
0.00441052
0.00431359
0.0044492
0.00480078
0.00565795
0.00762046
0.00894446
0.00839191
0.00796358
0.00915444
0.0103869
0.0102375
0.00955121
0.00955687
0.0101958
0.0106981
0.0106846
0.00358482
0.00386697
0.00419555
0.00454579
0.00450965
0.00459086
0.00490861
0.00573592
0.00759146
0.00891586
0.00846105
0.00795998
0.00898004
0.0102328
0.0102193
0.00951758
0.00938299
0.00996622
0.0105631
0.0106361
0.00373174
0.00395267
0.00425226
0.00467995
0.00471165
0.00473234
0.00501399
0.0058195
0.00756608
0.00887334
0.00851942
0.00797436
0.00882109
0.0100609
0.0101823
0.00950198
0.00924109
0.00973189
0.010393
0.0105869
0.00388032
0.00404935
0.00431068
0.0048092
0.00491986
0.00487706
0.00511206
0.00590612
0.00755086
0.00882105
0.00856277
0.00800198
0.00868241
0.00987799
0.0101247
0.00949749
0.00913177
0.00950666
0.0101898
0.0105179
0.00402991
0.00415749
0.00437317
0.00492976
0.00513217
0.0050299
0.00520152
0.00599102
0.00754864
0.00876653
0.00859096
0.00803651
0.00856477
0.00969081
0.0100458
0.00949749
0.00905383
0.00930214
0.00996316
0.0104155
0.00417999
0.00427726
0.00444261
0.00503845
0.00534443
0.00519687
0.00528483
0.00606528
0.00755742
0.00872033
0.0086075
0.00807137
0.00846657
0.00950576
0.00994756
0.00949487
0.00900329
0.0091272
0.00972824
0.0102739
0.00432996
0.00440825
0.00452255
0.00513393
0.00555141
0.00538207
0.00536515
0.00612092
0.00757308
0.00869005
0.00861981
0.00810385
0.00838407
0.00932735
0.00983404
0.00948477
0.00897348
0.00898575
0.00950147
0.0100978
0.00447944
0.00454968
0.00461602
0.00521647
0.00574695
0.00558651
0.00545141
0.00615588
0.00758352
0.00867399
0.00863798
0.00813688
0.0083138
0.00915565
0.00970784
0.00946637
0.00895936
0.00887676
0.00929688
0.00990159
0.00462835
0.0047009
0.00472541
0.00528789
0.00592165
0.00580459
0.00555815
0.00617536
0.00757572
0.00866834
0.0086704
0.00817578
0.00825531
0.00898996
0.00956893
0.00943818
0.00895781
0.00879703
0.00912138
0.00969565
0.00477679
0.00485952
0.00485295
0.00535414
0.00607001
0.00602815
0.00569221
0.00618479
0.0075408
0.00866486
0.00872078
0.00822953
0.00821279
0.00883379
0.00941833
0.00939616
0.00896566
0.00874317
0.008977
0.00949994
0.00492614
0.00502281
0.00499659
0.00542007
0.0061913
0.00624958
0.00585817
0.00619853
0.00747626
0.00864486
0.00878594
0.00830449
0.00819026
0.00869104
0.00925958
0.00933671
0.00897867
0.00871399
0.00886318
0.00932813
0.00507528
0.00519129
0.00515723
0.0054906
0.00628389
0.00645717
0.0060539
0.0062382
0.00739057
0.00859341
0.00885488
0.00840322
0.00819182
0.0085645
0.00909677
0.00925636
0.0089881
0.00870819
0.0087789
0.00918308
0.00522644
0.00535067
0.00533313
0.00557097
0.00634888
0.00663854
0.00627058
0.00631826
0.00730434
0.00850791
0.00890912
0.00852331
0.00822625
0.00846166
0.00893585
0.00915631
0.00898477
0.00872063
0.00872478
0.00906609
0.00538545
0.00552582
0.00551997
0.00566166
0.0063777
0.00678363
0.00649983
0.00644124
0.00724131
0.0083951
0.0089296
0.00865242
0.00829673
0.00839312
0.0087852
0.00904154
0.00896274
0.00874076
0.00870018
0.00897932
0.00554713
0.00567965
0.00570982
0.00577507
0.00640098
0.00689236
0.00672861
0.00660491
0.00721562
0.00826782
0.00890664
0.00876962
0.00839785
0.0083663
0.00865429
0.00891718
0.00891965
0.00875647
0.00869907
0.00892271
0.00571302
0.00584401
0.00589334
0.00590721
0.00642689
0.00696759
0.00693826
0.00679578
0.00723171
0.00814548
0.00884375
0.00885763
0.00851726
0.00838215
0.00855627
0.00879333
0.00885798
0.00876026
0.00871132
0.00889535
0.00588091
0.00599839
0.00607208
0.00606235
0.00647115
0.0070151
0.00711143
0.00699222
0.00728603
0.00805029
0.00875574
0.00890897
0.00864246
0.00843796
0.00850132
0.00868466
0.00878379
0.00874937
0.00872561
0.00889108
0.00604511
0.00614751
0.0062468
0.0062348
0.00653798
0.0070482
0.00725211
0.00718721
0.00737876
0.00799345
0.00865842
0.00891903
0.00875265
0.00852118
0.00848695
0.00860134
0.0087057
0.00872494
0.00873535
0.00889864
0.00620731
0.00628342
0.00641476
0.00642122
0.00662634
0.00707708
0.0073618
0.00737112
0.00749925
0.00797627
0.00857122
0.00889721
0.00883683
0.00862142
0.00851299
0.00855283
0.00863622
0.00869102
0.00874037
0.00891156
0.00637906
0.00644507
0.00656328
0.00657832
0.00672662
0.00711261
0.00744873
0.00753842
0.0076379
0.00799742
0.0085082
0.00886048
0.00889141
0.00872189
0.00857269
0.00854269
0.00858724
0.00865405
0.00873942
0.00892707
0.00654611
0.00659357
0.0067039
0.00673283
0.00684126
0.00716066
0.00751887
0.00768354
0.00778509
0.0080557
0.00847736
0.00882438
0.00892386
0.00880942
0.00865257
0.00857025
0.00856865
0.00862489
0.0087328
0.00894145
0.00670605
0.0067393
0.00683922
0.00688346
0.00697202
0.00722895
0.00758177
0.00780364
0.00792429
0.00813803
0.00847816
0.00879723
0.00894281
0.00888458
0.00873957
0.00862804
0.00858567
0.00861616
0.00872777
0.0089544
0.00685858
0.00687748
0.00697308
0.0070299
0.0071053
0.00730848
0.00763807
0.00790082
0.00805536
0.00824001
0.0085137
0.008794
0.0089607
0.00895343
0.00882948
0.00870416
0.00863415
0.00863648
0.00873636
0.00897028
0.00700701
0.00702073
0.00710026
0.00716021
0.00723249
0.00739663
0.00769793
0.00798364
0.00817648
0.00835355
0.00857743
0.00881998
0.00898999
0.00902187
0.00892845
0.00879731
0.00870737
0.00868645
0.00876643
0.00899521
0.00714529
0.00715439
0.00722301
0.00728244
0.00735464
0.00749561
0.00776894
0.00806089
0.00828516
0.0084691
0.0086596
0.00886857
0.00903597
0.00909428
0.00903688
0.00891502
0.00880995
0.00877081
0.00882815
0.00904037
0.00726917
0.00727307
0.00734181
0.00740058
0.00747247
0.0075983
0.00784468
0.00813184
0.00838197
0.00858869
0.00876696
0.0089471
0.00910559
0.00917834
0.00915005
0.00905143
0.00894048
0.0088858
0.00892354
0.00911328
0.00738857
0.00739315
0.00744943
0.00750233
0.00757856
0.00770152
0.0079285
0.00820044
0.00846317
0.00869718
0.00888901
0.00906121
0.00921702
0.00930178
0.00929227
0.00921999
0.00911516
0.00904396
0.00906121
0.00922324
0.00749266
0.00749702
0.00755104
0.00759577
0.00766898
0.00779602
0.00802097
0.008285
0.00854581
0.00878841
0.00899493
0.00918427
0.009356
0.00946866
0.00948519
0.0094386
0.00935468
0.00927681
0.00927605
0.00941358
0.00756809
0.00758176
0.00764243
0.00768553
0.00775433
0.00787932
0.00810096
0.00836728
0.00863663
0.00888526
0.0090973
0.00929877
0.00949411
0.00964616
0.00970583
0.00968993
0.0096336
0.00956221
0.00954005
0.00963954
0.00763658
0.00765384
0.00772212
0.00776482
0.00784008
0.0079644
0.0081703
0.0084256
0.00871487
0.00901526
0.00929199
0.00953998
0.00976409
0.00995522
0.0100648
0.0101041
0.0101145
0.0100764
0.0100082
0.00998968
0.00768477
0.0076914
0.00775928
0.00782008
0.00792044
0.00806604
0.0082427
0.00840378
0.00858699
0.00884477
0.00920872
0.0096114
0.00994679
0.0101991
0.0104045
0.0105833
0.0108025
0.0110938
0.0114215
0.0117226
0.00771656
0.00773418
0.00781401
0.00786055
0.00798182
0.00818397
0.00842372
0.00866218
0.00892136
0.00920267
0.00948846
0.00979116
0.0100816
0.0103516
0.01063
0.0109077
0.0111861
0.0114478
0.0116601
0.0117765
0.00765498
0.00763686
0.00781646
0.0080209
0.00820173
0.00836447
0.00856096
0.00878075
0.00899932
0.0092238
0.00947146
0.00975555
0.0100616
0.0103589
0.0106729
0.0109956
0.011354
0.0117705
0.0121662
0.0124374
0.00778105
0.00785433
0.00799475
0.00812521
0.00826201
0.00842311
0.00863356
0.00887358
0.00912291
0.00941678
0.00973886
0.0100578
0.0103759
0.0106438
0.0108476
0.0109892
0.0109775
0.0108328
0.0106209
0.0104424
0.00767512
0.00768014
0.00792302
0.00819202
0.00841225
0.00857467
0.00874707
0.00896713
0.00919696
0.00942516
0.00969908
0.00998528
0.0103012
0.0106434
0.010965
0.0112923
0.0116436
0.0120219
0.0123611
0.0125695
0.00772931
0.00779374
0.00807478
0.00834208
0.00854375
0.00868364
0.00883299
0.00903533
0.00925998
0.00949855
0.00981609
0.0101681
0.0105127
0.0108721
0.0112177
0.0115535
0.0118695
0.0121143
0.0122523
0.0122401
0.0276337
0.0213988
0.0127278
0.00600723
0.00416975
0.00544893
0.00715514
0.00836217
0.00908622
0.00953246
0.00984485
0.010119
0.0104506
0.0108354
0.0111451
0.0113605
0.011595
0.0118767
0.0121527
0.0123798
0.012564
0.0127944
0.0131188
0.0134411
0.0136659
0.0138623
0.0141669
0.0145625
0.0148967
0.0151393
0.0154309
0.0158047
0.0161586
0.0164692
0.016791
0.017128
0.0174646
0.0178326
0.0182468
0.0186689
0.0190912
0.0195352
0.0199815
0.0204041
0.0207787
0.0211322
0.0215038
0.0219092
0.0223214
0.0227456
0.0232067
0.0237025
0.0241905
0.024645
0.0251368
0.0256682
0.0261846
0.0266944
0.0272293
0.0277365
0.0282327
0.0287357
0.0292679
0.0298396
0.0304462
0.0310703
0.0317269
0.0323573
0.0329563
0.0335529
0.0341593
0.0348159
0.0355066
0.0362036
0.0368806
0.0375811
0.0382796
0.0390177
0.0397697
0.0405473
0.0413219
0.042109
0.042937
0.0437744
0.044632
0.0455049
0.0463987
0.0473311
0.0482626
0.0492265
0.0501442
0.0511058
0.0520977
0.0530967
0.0540996
0.0550798
0.0560415
0.0569085
0.0577305
0.0584563
0.0267442
0.0211984
0.0127993
0.00615994
0.00426564
0.00549411
0.00718205
0.00838033
0.00909959
0.0095432
0.0098537
0.0101262
0.0104567
0.0108411
0.0111504
0.0113652
0.011599
0.0118804
0.0121561
0.012383
0.0125667
0.0127967
0.013121
0.0134432
0.0136678
0.0138639
0.0141683
0.0145638
0.014898
0.0151405
0.0154319
0.0158056
0.0161596
0.01647
0.0167918
0.0171288
0.0174653
0.0178333
0.0182475
0.0186695
0.0190918
0.0195358
0.0199821
0.0204047
0.0207793
0.0211327
0.0215043
0.0219097
0.0223219
0.0227461
0.0232071
0.0237029
0.024191
0.0246454
0.0251371
0.0256685
0.026185
0.0266948
0.0272297
0.0277368
0.028233
0.028736
0.0292682
0.0298399
0.0304465
0.0310705
0.0317271
0.0323576
0.0329565
0.0335531
0.0341595
0.034816
0.0355068
0.0362038
0.0368808
0.0375812
0.0382798
0.0390178
0.0397698
0.0405474
0.0413221
0.0421091
0.0429371
0.0437745
0.0446322
0.0455051
0.0463988
0.0473313
0.0482627
0.0492266
0.0501443
0.0511058
0.0520978
0.0530968
0.0540997
0.0550799
0.0560416
0.0569085
0.0577305
0.0584563
0.0259178
0.020992
0.0129572
0.0064481
0.0044342
0.00555703
0.00721249
0.00840199
0.00911597
0.00955613
0.00986447
0.010135
0.0104636
0.0108467
0.0111554
0.0113697
0.0116031
0.0118841
0.0121593
0.0123859
0.0125693
0.0127989
0.013123
0.0134452
0.0136696
0.0138654
0.0141696
0.0145651
0.0148993
0.0151415
0.0154327
0.0158065
0.0161604
0.0164708
0.0167925
0.0171295
0.0174659
0.0178338
0.018248
0.0186701
0.0190923
0.0195363
0.0199826
0.0204052
0.0207799
0.0211332
0.0215048
0.0219101
0.0223223
0.0227465
0.0232075
0.0237033
0.0241914
0.0246457
0.0251374
0.0256688
0.0261853
0.0266951
0.02723
0.0277371
0.0282333
0.0287363
0.0292684
0.0298401
0.0304467
0.0310707
0.0317274
0.0323578
0.0329567
0.0335533
0.0341597
0.0348162
0.0355069
0.0362039
0.0368809
0.0375813
0.0382799
0.0390179
0.0397699
0.0405475
0.0413222
0.0421092
0.0429372
0.0437747
0.0446323
0.0455052
0.0463989
0.0473313
0.0482628
0.0492267
0.0501444
0.0511059
0.0520979
0.0530969
0.0540998
0.05508
0.0560417
0.0569086
0.0577305
0.0584563
0.0251266
0.0207732
0.0131631
0.00681676
0.00466924
0.00564927
0.00725879
0.00843549
0.00914048
0.00957456
0.00987996
0.0101481
0.0104733
0.0108534
0.0111608
0.0113751
0.0116086
0.0118888
0.0121633
0.0123896
0.0125727
0.0128019
0.0131255
0.0134475
0.0136718
0.0138675
0.0141714
0.0145668
0.0149008
0.0151428
0.0154338
0.0158075
0.0161614
0.0164716
0.0167933
0.0171302
0.0174665
0.0178343
0.0182486
0.0186706
0.0190928
0.0195368
0.0199832
0.0204058
0.0207804
0.0211337
0.0215052
0.0219105
0.0223228
0.0227469
0.0232079
0.0237037
0.0241918
0.0246461
0.0251378
0.0256692
0.0261856
0.0266954
0.0272303
0.0277375
0.0282336
0.0287365
0.0292686
0.0298403
0.0304469
0.0310709
0.0317276
0.032358
0.032957
0.0335535
0.0341598
0.0348163
0.0355071
0.0362041
0.0368811
0.0375815
0.03828
0.039018
0.0397701
0.0405477
0.0413223
0.0421093
0.0429373
0.0437748
0.0446324
0.0455053
0.046399
0.0473314
0.0482629
0.0492268
0.0501445
0.051106
0.0520979
0.053097
0.0540999
0.0550801
0.0560418
0.0569087
0.0577306
0.0584563
0.0243416
0.0205249
0.0133764
0.00721122
0.00493397
0.00575761
0.00731435
0.00847799
0.00917299
0.00959938
0.0099014
0.0101671
0.0104877
0.0108623
0.0111671
0.0113819
0.0116159
0.0118951
0.0121682
0.0123944
0.0125779
0.0128066
0.0131288
0.01345
0.0136747
0.0138708
0.0141744
0.0145691
0.0149027
0.0151447
0.0154356
0.0158091
0.0161626
0.0164727
0.0167943
0.0171311
0.0174672
0.0178349
0.0182492
0.0186713
0.0190934
0.0195374
0.0199838
0.0204064
0.020781
0.0211342
0.0215057
0.021911
0.0223232
0.0227473
0.0232083
0.0237042
0.0241923
0.0246465
0.0251381
0.0256696
0.026186
0.0266957
0.0272307
0.0277378
0.0282339
0.0287368
0.0292689
0.0298405
0.0304472
0.0310712
0.0317278
0.0323583
0.0329572
0.0335537
0.03416
0.0348165
0.0355073
0.0362043
0.0368813
0.0375816
0.0382802
0.0390182
0.0397702
0.0405478
0.0413224
0.0421094
0.0429374
0.0437749
0.0446325
0.0455054
0.0463991
0.0473315
0.048263
0.0492269
0.0501446
0.0511061
0.052098
0.0530971
0.0541
0.0550802
0.0560419
0.0569088
0.0577308
0.0584564
0.0235639
0.0202408
0.0135786
0.00761235
0.00521518
0.00587459
0.00737242
0.00852398
0.00921018
0.00962875
0.00992752
0.0101912
0.0105063
0.0108735
0.0111746
0.0113902
0.0116253
0.011903
0.0121741
0.0124003
0.0125851
0.0128135
0.0131334
0.013453
0.0136784
0.0138757
0.0141789
0.0145722
0.0149053
0.0151475
0.0154384
0.0158113
0.0161644
0.0164743
0.0167958
0.0171324
0.0174681
0.0178356
0.0182498
0.0186719
0.0190942
0.0195382
0.0199845
0.020407
0.0207816
0.0211348
0.0215062
0.0219114
0.0223237
0.0227478
0.0232088
0.0237046
0.0241927
0.024647
0.0251386
0.02567
0.0261864
0.0266961
0.0272311
0.0277382
0.0282342
0.0287371
0.0292691
0.0298408
0.0304475
0.0310715
0.0317281
0.0323587
0.0329575
0.0335539
0.0341602
0.0348167
0.0355075
0.0362045
0.0368814
0.0375818
0.0382803
0.0390183
0.0397703
0.0405479
0.0413226
0.0421095
0.0429375
0.043775
0.0446326
0.0455055
0.0463992
0.0473317
0.0482632
0.049227
0.0501447
0.0511062
0.0520982
0.0530972
0.0541001
0.0550803
0.0560421
0.0569091
0.0577311
0.0584565
0.0227996
0.019922
0.0137641
0.00801642
0.00551187
0.00600015
0.00743151
0.00857132
0.00925049
0.00966156
0.00995698
0.0102185
0.0105276
0.0108865
0.0111833
0.0113999
0.0116362
0.0119121
0.0121806
0.012407
0.012594
0.0128225
0.0131393
0.0134565
0.013683
0.0138823
0.0141848
0.014576
0.0149083
0.0151513
0.0154424
0.0158144
0.0161668
0.0164767
0.0167981
0.0171342
0.0174693
0.0178364
0.0182505
0.0186726
0.0190949
0.019539
0.0199852
0.0204078
0.0207824
0.0211356
0.0215068
0.0219119
0.0223241
0.0227484
0.0232094
0.0237051
0.0241932
0.0246475
0.0251391
0.0256705
0.0261868
0.0266966
0.0272316
0.0277386
0.0282345
0.0287374
0.0292694
0.0298411
0.0304478
0.0310718
0.0317285
0.0323591
0.0329578
0.0335541
0.0341604
0.0348169
0.0355077
0.0362047
0.0368817
0.037582
0.0382805
0.0390185
0.0397705
0.0405481
0.0413227
0.0421097
0.0429377
0.0437751
0.0446327
0.0455056
0.0463993
0.0473318
0.0482633
0.0492271
0.0501448
0.0511063
0.0520983
0.0530973
0.0541003
0.0550805
0.0560423
0.0569095
0.0577316
0.0584568
0.0220571
0.019574
0.0139303
0.00842134
0.00582417
0.00613577
0.00749188
0.00861928
0.00929338
0.00969745
0.00998912
0.0102481
0.0105508
0.0109009
0.0111931
0.0114108
0.0116482
0.0119219
0.0121874
0.0124141
0.012604
0.0128329
0.0131463
0.0134608
0.0136887
0.0138904
0.0141921
0.0145802
0.0149117
0.0151561
0.0154475
0.0158182
0.0161697
0.0164798
0.0168012
0.0171367
0.0174711
0.0178376
0.0182512
0.0186732
0.0190957
0.0195397
0.0199859
0.0204085
0.0207833
0.0211367
0.0215077
0.0219125
0.0223247
0.0227491
0.02321
0.0237056
0.0241937
0.0246481
0.0251397
0.0256709
0.0261873
0.0266972
0.0272322
0.0277391
0.028235
0.0287378
0.0292697
0.0298414
0.0304482
0.0310721
0.0317289
0.0323595
0.0329582
0.0335545
0.0341607
0.0348172
0.035508
0.036205
0.0368819
0.0375823
0.0382807
0.0390186
0.0397707
0.0405483
0.0413229
0.0421098
0.0429378
0.0437753
0.0446328
0.0455057
0.0463994
0.0473319
0.0482634
0.0492273
0.0501449
0.0511064
0.0520984
0.0530974
0.0541005
0.0550807
0.0560426
0.05691
0.0577324
0.0584571
0.0213453
0.0192033
0.0140735
0.00882294
0.00615083
0.00628265
0.00755401
0.00866717
0.0093382
0.00973608
0.0100236
0.0102796
0.0105755
0.0109164
0.0112039
0.0114226
0.0116612
0.0119324
0.0121946
0.0124215
0.0126145
0.0128441
0.013154
0.0134656
0.0136952
0.0138998
0.0142004
0.0145849
0.0149153
0.0151614
0.0154534
0.0158226
0.0161731
0.0164835
0.0168052
0.0171402
0.0174737
0.0178393
0.0182523
0.018674
0.0190964
0.0195404
0.0199865
0.0204092
0.0207844
0.0211381
0.0215089
0.0219133
0.0223255
0.02275
0.0232108
0.0237061
0.0241942
0.0246488
0.0251403
0.0256714
0.0261878
0.0266978
0.0272329
0.0277397
0.0282355
0.0287383
0.0292701
0.0298417
0.0304486
0.0310725
0.0317293
0.0323601
0.0329587
0.0335548
0.034161
0.0348176
0.0355084
0.0362054
0.0368823
0.0375826
0.038281
0.0390189
0.039771
0.0405485
0.0413231
0.04211
0.042938
0.0437754
0.044633
0.0455059
0.0463995
0.0473321
0.0482636
0.0492274
0.0501451
0.0511065
0.0520986
0.0530976
0.0541007
0.055081
0.0560429
0.0569108
0.0577335
0.0584575
0.0206716
0.018816
0.0141899
0.00921658
0.00648996
0.00644166
0.00761827
0.008714
0.00938388
0.00977699
0.0100604
0.010313
0.0106018
0.0109332
0.0112155
0.0114352
0.011675
0.0119436
0.0122022
0.0124291
0.0126254
0.0128558
0.013162
0.0134709
0.0137025
0.0139102
0.0142096
0.0145899
0.0149191
0.0151672
0.0154599
0.0158273
0.0161767
0.0164876
0.0168098
0.0171444
0.0174771
0.0178417
0.0182539
0.0186751
0.0190973
0.0195409
0.0199867
0.0204095
0.0207854
0.0211397
0.0215105
0.0219144
0.0223265
0.0227512
0.0232118
0.0237066
0.0241947
0.0246495
0.025141
0.0256717
0.0261881
0.0266985
0.0272336
0.0277403
0.0282362
0.0287389
0.0292705
0.029842
0.0304489
0.0310728
0.0317297
0.0323606
0.0329593
0.0335553
0.0341614
0.0348181
0.0355088
0.0362058
0.0368827
0.037583
0.0382813
0.0390192
0.0397713
0.0405488
0.0413233
0.0421102
0.0429382
0.0437756
0.0446331
0.045506
0.0463997
0.0473322
0.0482637
0.0492276
0.0501452
0.0511066
0.0520988
0.0530978
0.054101
0.0550813
0.0560433
0.0569119
0.057735
0.058458
0.0200413
0.0184187
0.0142774
0.00959838
0.00683913
0.00661331
0.00768507
0.00875883
0.00942927
0.00981972
0.0100994
0.0103483
0.0106296
0.0109508
0.0112278
0.0114486
0.0116897
0.0119555
0.0122102
0.012437
0.0126366
0.0128679
0.0131704
0.0134763
0.01371
0.0139213
0.0142195
0.0145954
0.0149231
0.0151732
0.0154666
0.0158323
0.0161803
0.0164917
0.0168146
0.017149
0.017481
0.0178447
0.0182559
0.0186766
0.0190983
0.0195414
0.0199866
0.0204094
0.0207862
0.0211415
0.0215125
0.0219159
0.0223278
0.0227527
0.0232131
0.0237073
0.0241953
0.0246504
0.0251417
0.025672
0.0261884
0.026699
0.0272342
0.027741
0.028237
0.0287398
0.0292713
0.0298426
0.0304493
0.031073
0.0317299
0.0323611
0.0329598
0.0335557
0.034162
0.0348187
0.0355094
0.0362062
0.0368832
0.0375835
0.0382818
0.0390197
0.0397717
0.0405491
0.0413236
0.0421105
0.0429385
0.0437758
0.0446333
0.0455062
0.0463999
0.0473324
0.0482639
0.0492277
0.0501454
0.0511068
0.052099
0.0530979
0.0541014
0.0550818
0.0560438
0.0569134
0.0577369
0.0584587
0.0194568
0.0180183
0.0143359
0.00996503
0.0071955
0.00679796
0.00775526
0.00880112
0.00947327
0.00986371
0.0101405
0.0103855
0.0106586
0.0109693
0.0112407
0.0114626
0.0117051
0.0119681
0.0122186
0.0124453
0.0126482
0.0128805
0.0131791
0.0134818
0.0137177
0.0139327
0.0142298
0.0146013
0.0149273
0.0151794
0.0154737
0.0158374
0.016184
0.0164959
0.0168195
0.0171539
0.0174854
0.0178481
0.0182584
0.0186784
0.0190997
0.019542
0.0199863
0.0204089
0.0207866
0.0211433
0.0215146
0.0219177
0.0223296
0.0227546
0.0232146
0.0237081
0.024196
0.0246515
0.0251426
0.0256722
0.0261885
0.0266994
0.0272347
0.0277415
0.0282378
0.0287408
0.0292723
0.0298434
0.0304498
0.0310731
0.0317299
0.0323614
0.0329603
0.0335561
0.0341625
0.0348194
0.0355099
0.0362068
0.0368838
0.0375841
0.0382823
0.0390202
0.0397722
0.0405496
0.0413241
0.0421109
0.0429389
0.043776
0.0446336
0.0455064
0.0464001
0.0473326
0.0482641
0.0492279
0.0501455
0.0511069
0.0520992
0.0530981
0.0541018
0.0550823
0.0560444
0.0569152
0.0577394
0.0584596
0.0189174
0.0176208
0.0143667
0.0103134
0.00755615
0.00699607