/*--------------------------------*- C++ -*----------------------------------*\
| =========                 |                                                 |
| \\      /  F ield         | OpenFOAM: The Open Source CFD Toolbox           |
|  \\    /   O peration     | Version:  v2012                                 |
|   \\  /    A nd           | Website:  www.openfoam.com                      |
|    \\/     M anipulation  |                                                 |
\*---------------------------------------------------------------------------*/
FoamFile
{
    version     2.0;
    format      ascii;
    class       surfaceScalarField;
    location    "11";
    object      phi;
}
// * * * * * * * * * * * * * * * * * * * * * * * * * * * * * * * * * * * * * //

dimensions      [0 3 -1 0 0 0 0];
oriented        oriented;


internalField   nonuniform List<scalar> 
19000
(
1.18376e-06
-6.31695e-07
1.17058e-06
1.20444e-06
1.08572e-06
2.30722e-07
1.15002e-06
-1.16728e-06
1.27266e-06
-2.74504e-06
1.2606e-06
-2.91326e-07
1.22594e-06
2.29718e-07
1.20096e-06
8.22147e-07
1.16708e-06
3.10892e-07
1.19007e-06
-8.98054e-08
1.2102e-06
-9.69111e-07
1.2119e-06
-8.48975e-07
1.21611e-06
-8.13391e-07
1.20702e-06
-4.75552e-07
1.21989e-06
-4.04981e-07
1.21466e-06
-2.044e-07
1.22752e-06
-1.9694e-07
1.2252e-06
-7.65528e-08
1.2259e-06
-5.1083e-08
2.19057e-08
1.19862e-06
1.24218e-06
-6.49618e-07
1.25759e-06
1.18904e-06
1.14423e-06
3.44077e-07
1.18397e-06
-1.20702e-06
1.32211e-06
-2.88318e-06
1.32714e-06
-2.96358e-07
1.28631e-06
2.70548e-07
1.28442e-06
8.24043e-07
1.24113e-06
3.54183e-07
1.26994e-06
-1.18622e-07
1.27667e-06
-9.75839e-07
1.27513e-06
-8.47438e-07
1.2734e-06
-8.11657e-07
1.27255e-06
-4.747e-07
1.27549e-06
-4.07928e-07
1.28622e-06
-2.15121e-07
1.28182e-06
-1.9254e-07
1.30096e-06
-9.56964e-08
1.27713e-06
-2.72562e-08
1.26481e-08
1.28639e-06
1.30183e-06
-6.68667e-07
1.34731e-06
1.14356e-06
1.21397e-06
4.77419e-07
1.22573e-06
-1.21878e-06
1.36528e-06
-3.02272e-06
1.39565e-06
-3.26733e-07
1.35097e-06
3.15229e-07
1.36742e-06
8.07596e-07
1.33018e-06
3.9142e-07
1.34591e-06
-1.34352e-07
1.33424e-06
-9.64173e-07
1.3304e-06
-8.43593e-07
1.32211e-06
-8.03365e-07
1.32842e-06
-4.81013e-07
1.32843e-06
-4.07941e-07
1.34495e-06
-2.31632e-07
1.34214e-06
-1.89734e-07
1.35794e-06
-1.11499e-07
1.34799e-06
-1.73097e-08
1.94011e-08
1.34124e-06
1.36127e-06
-6.85835e-07
1.42668e-06
1.07815e-06
1.28798e-06
6.16119e-07
1.27525e-06
-1.20605e-06
1.39861e-06
-3.14608e-06
1.45362e-06
-3.81747e-07
1.41875e-06
3.501e-07
1.44404e-06
7.82305e-07
1.42263e-06
4.12831e-07
1.4235e-06
-1.35224e-07
1.39649e-06
-9.3716e-07
1.38413e-06
-8.31232e-07
1.37154e-06
-7.90774e-07
1.37813e-06
-4.87604e-07
1.38078e-06
-4.1059e-07
1.39774e-06
-2.48596e-07
1.40186e-06
-1.93853e-07
1.41536e-06
-1.25005e-07
1.41484e-06
-1.6785e-08
2.64047e-08
1.40784e-06
1.42065e-06
-6.9813e-07
1.49176e-06
1.00704e-06
1.36561e-06
7.42267e-07
1.3336e-06
-1.17404e-06
1.42589e-06
-3.23837e-06
1.49837e-06
-4.54229e-07
1.48799e-06
3.60484e-07
1.51873e-06
7.51563e-07
1.51506e-06
4.16501e-07
1.50446e-06
-1.24624e-07
1.46507e-06
-8.97768e-07
1.44228e-06
-8.08449e-07
1.42522e-06
-7.73713e-07
1.43008e-06
-4.92457e-07
1.43409e-06
-4.14606e-07
1.45182e-06
-2.66323e-07
1.46e-06
-2.02033e-07
1.47477e-06
-1.39771e-07
1.47921e-06
-2.12275e-08
2.97872e-08
1.47583e-06
1.48158e-06
-7.04038e-07
1.54621e-06
9.42415e-07
1.4472e-06
8.41279e-07
1.40126e-06
-1.12811e-06
1.45498e-06
-3.29209e-06
1.53686e-06
-5.36106e-07
1.55905e-06
3.383e-07
1.59725e-06
7.13361e-07
1.60699e-06
4.06758e-07
1.58908e-06
-1.06711e-07
1.53934e-06
-8.48028e-07
1.50715e-06
-7.76256e-07
1.48457e-06
-7.5114e-07
1.48723e-06
-4.95116e-07
1.49082e-06
-4.18194e-07
1.50883e-06
-2.84338e-07
1.5192e-06
-2.12397e-07
1.53503e-06
-1.55599e-07
1.54369e-06
-2.98865e-08
3.0094e-08
1.54338e-06
1.54631e-06
-7.0413e-07
1.59821e-06
8.90513e-07
1.53301e-06
9.06483e-07
1.47826e-06
-1.07336e-06
1.49428e-06
-3.30811e-06
1.5795e-06
-6.21325e-07
1.63328e-06
2.8452e-07
1.68168e-06
6.64959e-07
1.69839e-06
3.90045e-07
1.67508e-06
-8.34005e-08
1.6168e-06
-7.89741e-07
1.57754e-06
-7.37e-07
1.54971e-06
-7.23307e-07
1.54985e-06
-4.95265e-07
1.55224e-06
-4.20581e-07
1.56948e-06
-3.01579e-07
1.58101e-06
-2.23928e-07
1.59676e-06
-1.71345e-07
1.60888e-06
-4.20038e-08
2.78094e-08
1.61116e-06
1.61633e-06
-7.00331e-07
1.65586e-06
8.50985e-07
1.62287e-06
9.39473e-07
1.56355e-06
-1.01404e-06
1.54857e-06
-3.29313e-06
1.63361e-06
-7.06365e-07
1.71135e-06
2.06776e-07
1.76975e-06
6.06562e-07
1.78774e-06
3.7205e-07
1.75954e-06
-5.51952e-08
1.6951e-06
-7.25299e-07
1.65178e-06
-6.93678e-07
1.62015e-06
-6.91682e-07
1.61772e-06
-4.9283e-07
1.61845e-06
-4.21311e-07
1.63388e-06
-3.17017e-07
1.64573e-06
-2.35771e-07
1.66043e-06
-1.86052e-07
1.67492e-06
-5.6488e-08
2.32925e-08
1.67944e-06
1.69174e-06
-6.94495e-07
1.72357e-06
8.19153e-07
1.71621e-06
9.46834e-07
1.65533e-06
-9.53165e-07
1.61799e-06
-3.25578e-06
1.7008e-06
-7.89175e-07
1.79223e-06
1.1534e-07
1.85692e-06
5.41869e-07
1.87229e-06
3.56688e-07
1.84011e-06
-2.30227e-08
1.77276e-06
-6.57946e-07
1.72868e-06
-6.49599e-07
1.69535e-06
-6.58352e-07
1.69056e-06
-4.88041e-07
1.68921e-06
-4.19954e-07
1.70178e-06
-3.29596e-07
1.71302e-06
-2.47008e-07
1.72592e-06
-1.98953e-07
1.74163e-06
-7.21954e-08
1.69184e-08
1.748e-06
1.77172e-06
-6.87489e-07
1.80117e-06
7.89703e-07
1.81188e-06
9.36121e-07
1.75184e-06
-8.93125e-07
1.69976e-06
-3.2037e-06
1.77825e-06
-8.67668e-07
1.87334e-06
2.02507e-08
1.93891e-06
4.76299e-07
1.94963e-06
3.4597e-07
1.91574e-06
1.08622e-08
1.8494e-06
-5.916e-07
1.80772e-06
-6.07922e-07
1.77488e-06
-6.25505e-07
1.76823e-06
-4.814e-07
1.76454e-06
-4.16264e-07
1.7733e-06
-3.38355e-07
1.78289e-06
-2.56595e-07
1.79322e-06
-2.09284e-07
1.80895e-06
-8.792e-08
9.15933e-09
1.81671e-06
1.85559e-06
-6.79335e-07
1.8857e-06
7.59593e-07
1.90823e-06
9.13599e-07
1.85171e-06
-8.36605e-07
1.79044e-06
-3.14244e-06
1.86148e-06
-9.38702e-07
1.95168e-06
-6.99504e-08
2.0132e-06
4.14779e-07
2.01919e-06
3.3998e-07
1.98701e-06
4.3036e-08
1.92569e-06
-5.30274e-07
1.88895e-06
-5.71181e-07
1.85846e-06
-5.95021e-07
1.85068e-06
-4.73621e-07
1.84484e-06
-4.10424e-07
1.84928e-06
-3.42789e-07
1.85627e-06
-2.63586e-07
1.86329e-06
-2.16305e-07
1.87769e-06
-1.02321e-07
7.09577e-10
1.88614e-06
1.94335e-06
-6.69848e-07
1.97428e-06
7.28667e-07
2.00396e-06
8.83918e-07
1.954e-06
-7.86647e-07
1.88708e-06
-3.07552e-06
1.94662e-06
-9.98237e-07
2.0254e-06
-1.48734e-07
2.07991e-06
3.60267e-07
2.08289e-06
3.37004e-07
2.05622e-06
6.97082e-08
2.0032e-06
-4.77255e-07
1.9729e-06
-5.40878e-07
1.94603e-06
-5.68155e-07
1.93791e-06
-4.65499e-07
1.93059e-06
-4.03106e-07
1.93091e-06
-3.43105e-07
1.93479e-06
-2.67471e-07
1.93803e-06
-2.1954e-07
1.94979e-06
-1.14085e-07
-7.51357e-09
1.95801e-06
2.0354e-06
-6.59054e-07
2.06571e-06
6.9835e-07
2.09917e-06
8.50465e-07
2.05815e-06
-7.45627e-07
1.9876e-06
-3.00497e-06
2.03222e-06
-1.04285e-06
2.0956e-06
-2.12113e-07
2.14243e-06
3.13434e-07
2.14513e-06
3.34299e-07
2.12696e-06
8.78816e-08
2.08402e-06
-4.34312e-07
2.06042e-06
-5.17284e-07
2.03767e-06
-5.45406e-07
2.02988e-06
-4.57704e-07
2.02203e-06
-3.95257e-07
2.01909e-06
-3.40167e-07
2.01996e-06
-2.68342e-07
2.01945e-06
-2.19027e-07
2.02763e-06
-1.22268e-07
-1.458e-08
2.0347e-06
2.13214e-06
-6.47191e-07
2.16048e-06
6.70004e-07
2.1954e-06
8.15551e-07
2.164e-06
-7.14225e-07
2.09098e-06
-2.93196e-06
2.11969e-06
-1.07156e-06
2.16663e-06
-2.59052e-07
2.20673e-06
2.73332e-07
2.21161e-06
3.2942e-07
2.20312e-06
9.63678e-08
2.17019e-06
-4.01373e-07
2.15245e-06
-4.99549e-07
2.13363e-06
-5.26585e-07
2.12653e-06
-4.50607e-07
2.11902e-06
-3.87748e-07
2.11401e-06
-3.35153e-07
2.11245e-06
-2.66778e-07
2.10878e-06
-2.15361e-07
2.1131e-06
-1.26583e-07
-1.98231e-08
2.11834e-06
2.23384e-06
-6.34541e-07
2.2597e-06
6.44141e-07
2.29477e-06
7.8048e-07
2.27194e-06
-6.91392e-07
2.19719e-06
-2.85721e-06
2.21195e-06
-1.08632e-06
2.24409e-06
-2.91192e-07
2.27905e-06
2.38376e-07
2.28724e-06
3.21221e-07
2.28762e-06
9.59927e-08
2.26316e-06
-3.76909e-07
2.24975e-06
-4.86139e-07
2.23422e-06
-5.1106e-07
2.22786e-06
-4.44246e-07
2.2212e-06
-3.81084e-07
2.2152e-06
-3.29156e-07
2.21196e-06
-2.63537e-07
2.2061e-06
-2.095e-07
2.2069e-06
-1.27384e-07
-2.30449e-08
2.21012e-06
2.34066e-06
-6.21321e-07
2.36427e-06
6.20526e-07
2.39897e-06
7.45785e-07
2.38277e-06
-6.752e-07
2.30681e-06
-2.78125e-06
2.31133e-06
-1.09084e-06
2.33186e-06
-3.11731e-07
2.36321e-06
2.07032e-07
2.37454e-06
3.09893e-07
2.38166e-06
8.88646e-08
2.36356e-06
-3.58802e-07
2.3528e-06
-4.75381e-07
2.33979e-06
-4.9805e-07
2.33397e-06
-4.38427e-07
2.32822e-06
-3.75334e-07
2.32198e-06
-3.22916e-07
2.31771e-06
-2.59268e-07
2.31066e-06
-2.02446e-07
2.30871e-06
-1.25439e-07
-2.44769e-08
2.31015e-06
2.45274e-06
-6.07661e-07
2.47468e-06
5.9858e-07
2.50887e-06
7.11598e-07
2.4974e-06
-6.63735e-07
2.42053e-06
-2.70437e-06
2.41856e-06
-1.08887e-06
2.43092e-06
-3.24088e-07
2.45987e-06
1.78084e-07
2.47349e-06
2.96268e-07
2.48502e-06
7.73389e-08
2.47139e-06
-3.45173e-07
2.46189e-06
-4.65881e-07
2.45065e-06
-4.86817e-07
2.44511e-06
-4.32887e-07
2.44002e-06
-3.70236e-07
2.43389e-06
-3.16788e-07
2.42901e-06
-2.54388e-07
2.42152e-06
-1.94962e-07
2.41774e-06
-1.21656e-07
-2.45807e-08
2.41784e-06
2.57026e-06
-5.93627e-07
2.59117e-06
5.77669e-07
2.62483e-06
6.77943e-07
2.61661e-06
-6.5552e-07
2.53897e-06
-2.62673e-06
2.53325e-06
-1.08315e-06
2.54016e-06
-3.31006e-07
2.56761e-06
1.50638e-07
2.58275e-06
2.81131e-07
2.59677e-06
6.33122e-08
2.58635e-06
-3.34753e-07
2.57718e-06
-4.56705e-07
2.5671e-06
-4.76739e-07
2.56161e-06
-4.27401e-07
2.55677e-06
-3.65388e-07
2.55081e-06
-3.1083e-07
2.54553e-06
-2.49111e-07
2.53802e-06
-1.87456e-07
2.5332e-06
-1.16834e-07
-2.38613e-08
2.53248e-06
2.69344e-06
-5.79237e-07
2.71391e-06
5.57197e-07
2.74699e-06
6.44861e-07
2.74099e-06
-6.49514e-07
2.66258e-06
-2.54832e-06
2.65471e-06
-1.07528e-06
2.65806e-06
-3.34358e-07
2.68463e-06
1.24064e-07
2.70086e-06
2.64902e-07
2.7161e-06
4.80775e-08
2.70817e-06
-3.26825e-07
2.69881e-06
-4.47342e-07
2.68938e-06
-4.67313e-07
2.6838e-06
-4.2182e-07
2.67883e-06
-3.60414e-07
2.67294e-06
-3.04946e-07
2.66735e-06
-2.43519e-07
2.65995e-06
-1.80059e-07
2.65466e-06
-1.11541e-07
-2.27279e-08
2.65353e-06
2.8225e-06
-5.64472e-07
2.84309e-06
5.36614e-07
2.87554e-06
6.12404e-07
2.87099e-06
-6.44963e-07
2.79176e-06
-2.46908e-06
2.78256e-06
-1.06608e-06
2.78357e-06
-3.35362e-07
2.8097e-06
9.79334e-08
2.8269e-06
2.47694e-07
2.84252e-06
3.24626e-08
2.83667e-06
-3.20972e-07
2.82692e-06
-4.37601e-07
2.81774e-06
-4.58124e-07
2.81199e-06
-4.16073e-07
2.80661e-06
-3.55039e-07
2.80065e-06
-2.98988e-07
2.79481e-06
-2.37676e-07
2.7875e-06
-1.72743e-07
2.78207e-06
-1.06116e-07
-2.14606e-08
2.7808e-06
2.95771e-06
-5.49282e-07
2.97888e-06
5.15437e-07
3.01067e-06
5.80615e-07
3.007e-06
-6.4129e-07
2.92691e-06
-2.38899e-06
2.91678e-06
-1.05596e-06
2.91628e-06
-3.3486e-07
2.94223e-06
7.1983e-08
2.96044e-06
2.29478e-07
2.97591e-06
1.69943e-08
2.97179e-06
-3.16848e-07
2.96168e-06
-4.27487e-07
2.9524e-06
-4.48846e-07
2.94646e-06
-4.10135e-07
2.94054e-06
-3.49122e-07
2.93436e-06
-2.92801e-07
2.92834e-06
-2.31659e-07
2.92109e-06
-1.65494e-07
2.91564e-06
-1.00661e-07
-2.02563e-08
2.91443e-06
3.09932e-06
-5.33599e-07
3.12148e-06
4.9328e-07
3.15258e-06
5.49514e-07
3.14933e-06
-6.38041e-07
3.06841e-06
-2.30807e-06
3.05757e-06
-1.04511e-06
3.0562e-06
-3.33488e-07
3.08209e-06
4.6097e-08
3.10134e-06
2.10223e-07
3.11631e-06
2.02191e-09
3.11358e-06
-3.14113e-07
3.10322e-06
-4.17132e-07
3.09361e-06
-4.39235e-07
3.0875e-06
-4.04023e-07
3.08101e-06
-3.42637e-07
3.07446e-06
-2.86249e-07
3.06838e-06
-2.25571e-07
3.06123e-06
-1.58347e-07
3.0557e-06
-9.51335e-08
-1.92501e-08
3.05469e-06
3.24766e-06
-5.1735e-07
3.27105e-06
4.69889e-07
3.30147e-06
5.19098e-07
3.29829e-06
-6.34868e-07
3.21669e-06
-2.22646e-06
3.20524e-06
-1.03366e-06
3.2035e-06
-3.31749e-07
3.22931e-06
2.02894e-08
3.24958e-06
1.89949e-07
3.26383e-06
-1.2224e-08
3.26215e-06
-3.12437e-07
3.25175e-06
-4.0673e-07
3.24164e-06
-4.29126e-07
3.23538e-06
-3.97766e-07
3.2284e-06
-3.35656e-07
3.22138e-06
-2.79231e-07
3.21529e-06
-2.19479e-07
3.20837e-06
-1.51431e-07
3.20267e-06
-8.94266e-08
-1.84741e-08
3.20189e-06
3.40306e-06
-5.00479e-07
3.42779e-06
4.45161e-07
3.45755e-06
4.8934e-07
3.45418e-06
-6.31505e-07
3.37211e-06
-2.14439e-06
3.36009e-06
-1.02165e-06
3.35837e-06
-3.30026e-07
3.384e-06
-5.33579e-09
3.40521e-06
1.68731e-07
3.41861e-06
-2.56185e-08
3.4177e-06
-3.11531e-07
3.40747e-06
-3.96502e-07
3.39678e-06
-4.1843e-07
3.3904e-06
-3.91383e-07
3.38306e-06
-3.2832e-07
3.37552e-06
-2.71691e-07
3.36942e-06
-2.13374e-07
3.36292e-06
-1.44939e-07
3.35697e-06
-8.34769e-08
-1.77895e-08
3.35629e-06
3.5659e-06
-4.82963e-07
3.59192e-06
4.19138e-07
3.62108e-06
4.60179e-07
3.61732e-06
-6.27743e-07
3.53504e-06
-2.06211e-06
3.52244e-06
-1.00905e-06
3.52102e-06
-3.28604e-07
3.54632e-06
-3.06339e-08
3.56838e-06
1.4667e-07
3.58088e-06
-3.81252e-08
3.5805e-06
-3.11146e-07
3.57066e-06
-3.86658e-07
3.55935e-06
-4.07127e-07
3.55282e-06
-3.84851e-07
3.54532e-06
-3.20819e-07
3.53727e-06
-2.63636e-07
3.53108e-06
-2.07191e-07
3.52518e-06
-1.39037e-07
3.51909e-06
-7.73834e-08
-1.68783e-08
3.51818e-06
3.73657e-06
-4.64824e-07
3.76373e-06
3.91979e-07
3.79239e-06
4.31513e-07
3.78806e-06
-6.23413e-07
3.70586e-06
-1.97991e-06
3.6926e-06
-9.95794e-07
3.69168e-06
-3.27682e-07
3.7165e-06
-5.5456e-08
3.73931e-06
1.23864e-07
3.75095e-06
-4.97701e-08
3.75088e-06
-3.1107e-07
3.74158e-06
-3.77361e-07
3.72972e-06
-3.95266e-07
3.72295e-06
-3.7808e-07
3.71549e-06
-3.1336e-07
3.70698e-06
-2.5513e-07
3.70063e-06
-2.00843e-07
3.6954e-06
-1.33802e-07
3.68942e-06
-7.14001e-08
-1.54272e-08
3.68797e-06
3.91549e-06
-4.46129e-07
3.94355e-06
3.63923e-07
3.97186e-06
4.032e-07
3.96682e-06
-6.18374e-07
3.88496e-06
-1.89804e-06
3.87094e-06
-9.81779e-07
3.87063e-06
-3.27374e-07
3.89485e-06
-7.96719e-08
3.91831e-06
1.00404e-07
3.92915e-06
-6.06122e-08
3.9292e-06
-3.1112e-07
3.92056e-06
-3.68714e-07
3.90824e-06
-3.82948e-07
3.90108e-06
-3.70919e-07
3.89383e-06
-3.06113e-07
3.88503e-06
-2.46326e-07
3.87842e-06
-1.94234e-07
3.87382e-06
-1.292e-07
3.86828e-06
-6.58638e-08
-1.33107e-08
3.86616e-06
4.1031e-06
-4.26978e-07
4.13177e-06
3.35251e-07
4.1599e-06
3.75076e-07
4.15403e-06
-6.1251e-07
4.07275e-06
-1.81676e-06
4.05788e-06
-9.6691e-07
4.0582e-06
-3.27701e-07
4.0817e-06
-1.0317e-07
4.10573e-06
7.63721e-08
4.11585e-06
-7.07293e-08
4.11587e-06
-3.11138e-07
4.10792e-06
-3.60765e-07
4.09528e-06
-3.70308e-07
4.08753e-06
-3.63169e-07
4.08064e-06
-2.9922e-07
4.0717e-06
-2.37386e-07
4.06481e-06
-1.87348e-07
4.06065e-06
-1.25045e-07
4.0559e-06
-6.11138e-08
-1.06675e-08
4.05326e-06
4.29981e-06
-4.07482e-07
4.32881e-06
3.06248e-07
4.35692e-06
3.4697e-07
4.35015e-06
-6.05743e-07
4.26966e-06
-1.73627e-06
4.25387e-06
-9.5112e-07
4.25477e-06
-3.28603e-07
4.27743e-06
-1.2583e-07
4.30196e-06
5.1847e-08
4.31144e-06
-8.0214e-08
4.31128e-06
-3.10975e-07
4.30405e-06
-3.53539e-07
4.29121e-06
-3.57468e-07
4.28272e-06
-3.54673e-07
4.27619e-06
-2.92693e-07
4.2673e-06
-2.28498e-07
4.26012e-06
-1.80163e-07
4.25627e-06
-1.21201e-07
4.25244e-06
-5.7281e-08
-7.88776e-09
4.24966e-06
4.50604e-06
-3.87751e-07
4.53511e-06
2.7718e-07
4.56334e-06
3.18739e-07
4.55563e-06
-5.9803e-07
4.47614e-06
-1.65678e-06
4.45941e-06
-9.34394e-07
4.46078e-06
-3.29976e-07
4.48246e-06
-1.47504e-07
4.5074e-06
2.69063e-08
4.51636e-06
-8.9176e-08
4.51585e-06
-3.10467e-07
4.50938e-06
-3.47069e-07
4.49647e-06
-3.44553e-07
4.48712e-06
-3.45332e-07
4.48084e-06
-2.86411e-07
4.4722e-06
-2.19853e-07
4.46471e-06
-1.72674e-07
4.46106e-06
-1.17549e-07
4.45818e-06
-5.4409e-08
-5.33751e-09
4.45563e-06
4.72224e-06
-3.67877e-07
4.75114e-06
2.48278e-07
4.77959e-06
2.90289e-07
4.77093e-06
-5.89371e-07
4.69261e-06
-1.57846e-06
4.67499e-06
-9.16774e-07
4.67673e-06
-3.31711e-07
4.69725e-06
-1.68028e-07
4.7225e-06
1.65397e-09
4.73108e-06
-9.77504e-08
4.73006e-06
-3.09448e-07
4.72434e-06
-3.41353e-07
4.7115e-06
-3.31711e-07
4.70126e-06
-3.35087e-07
4.69512e-06
-2.80276e-07
4.6868e-06
-2.11526e-07
4.67908e-06
-1.64961e-07
4.67551e-06
-1.13972e-07
4.67347e-06
-5.23746e-08
-3.36643e-09
4.6715e-06
4.94886e-06
-3.47939e-07
4.97739e-06
2.19745e-07
5.00608e-06
2.61604e-07
4.99653e-06
-5.79821e-07
4.91953e-06
-1.50145e-06
4.90109e-06
-8.98341e-07
4.90313e-06
-3.33748e-07
4.92235e-06
-1.87244e-07
4.94776e-06
-2.37587e-08
4.9561e-06
-1.06092e-07
4.95442e-06
-3.07762e-07
4.94943e-06
-3.36368e-07
4.93683e-06
-3.19105e-07
4.92567e-06
-3.23937e-07
4.91954e-06
-2.74143e-07
4.9117e-06
-2.03689e-07
4.90379e-06
-1.57043e-07
4.90013e-06
-1.10315e-07
4.8988e-06
-5.104e-08
-2.17322e-09
4.8976e-06
5.18639e-06
-3.2801e-07
5.21438e-06
1.91749e-07
5.24323e-06
2.32758e-07
5.23289e-06
-5.69486e-07
5.15735e-06
-1.42591e-06
5.13821e-06
-8.79193e-07
5.14053e-06
-3.36077e-07
5.15831e-06
-2.05022e-07
5.1837e-06
-4.91446e-08
5.19195e-06
-1.14339e-07
5.18951e-06
-3.0533e-07
5.18514e-06
-3.31991e-07
5.17298e-06
-3.06945e-07
5.16097e-06
-3.11933e-07
5.15464e-06
-2.67811e-07
5.14745e-06
-1.96495e-07
5.13941e-06
-1.4901e-07
5.13555e-06
-1.06449e-07
5.13466e-06
-5.01573e-08
-1.86251e-09
5.13435e-06
5.43534e-06
-3.08162e-07
5.46267e-06
1.64423e-07
5.4915e-06
2.03925e-07
5.48055e-06
-5.58533e-07
5.40659e-06
-1.35196e-06
5.3868e-06
-8.594e-07
5.38947e-06
-3.38744e-07
5.40574e-06
-2.21295e-07
5.43084e-06
-7.42473e-08
5.43914e-06
-1.22634e-07
5.43593e-06
-3.02127e-07
5.432e-06
-3.28057e-07
5.4205e-06
-2.95448e-07
5.40776e-06
-2.99192e-07
5.40103e-06
-2.61074e-07
5.39454e-06
-1.90007e-07
5.38656e-06
-1.41032e-07
5.38234e-06
-1.02226e-07
5.3817e-06
-4.95176e-08
-2.38767e-09
5.38222e-06
5.69627e-06
-2.88469e-07
5.72283e-06
1.3786e-07
5.75137e-06
1.7538e-07
5.74003e-06
-5.47195e-07
5.6678e-06
-1.27972e-06
5.64738e-06
-8.38983e-07
5.6505e-06
-3.41868e-07
5.66523e-06
-2.36023e-07
5.68975e-06
-9.87706e-08
5.69821e-06
-1.3109e-07
5.69426e-06
-2.98177e-07
5.6906e-06
-3.24393e-07
5.67996e-06
-2.84814e-07
5.66661e-06
-2.85841e-07
5.65931e-06
-2.53776e-07
5.65353e-06
-1.84222e-07
5.64579e-06
-1.33297e-07
5.64113e-06
-9.75616e-08
5.64053e-06
-4.89182e-08
-3.60652e-09
5.64175e-06
5.96973e-06
-2.69007e-07
5.99548e-06
1.12113e-07
6.02339e-06
1.47467e-07
6.01194e-06
-5.35739e-07
5.94156e-06
-1.20935e-06
5.92047e-06
-8.17897e-07
5.92419e-06
-3.45582e-07
5.9374e-06
-2.49235e-07
5.96101e-06
-1.2238e-07
5.96969e-06
-1.39776e-07
5.96507e-06
-2.9355e-07
5.9615e-06
-3.2083e-07
5.95192e-06
-2.75228e-07
5.93812e-06
-2.72043e-07
5.93013e-06
-2.45787e-07
5.92498e-06
-1.79073e-07
5.91767e-06
-1.25983e-07
5.91257e-06
-9.24637e-08
5.91185e-06
-4.81946e-08
-5.22306e-09
5.91346e-06
6.25633e-06
-2.49853e-07
6.28126e-06
8.71825e-08
6.30814e-06
1.20594e-07
6.29688e-06
-5.24483e-07
6.2285e-06
-1.14097e-06
6.20668e-06
-7.96072e-07
6.21105e-06
-3.49958e-07
6.22285e-06
-2.61034e-07
6.24524e-06
-1.44763e-07
6.25412e-06
-1.48664e-07
6.24894e-06
-2.8837e-07
6.24534e-06
-3.1723e-07
6.23689e-06
-2.66771e-07
6.22291e-06
-2.58061e-07
6.21411e-06
-2.36988e-07
6.2095e-06
-1.74466e-07
6.2028e-06
-1.19279e-07
6.1973e-06
-8.69652e-08
6.19628e-06
-4.71748e-08
-7.02395e-09
6.19808e-06
6.5567e-06
-2.31088e-07
6.58082e-06
6.3067e-08
6.60631e-06
9.51028e-08
6.59553e-06
-5.13702e-07
6.52929e-06
-1.07472e-06
6.50656e-06
-7.73349e-07
6.51164e-06
-3.55032e-07
6.52221e-06
-2.71611e-07
6.5431e-06
-1.65649e-07
6.55209e-06
-1.57655e-07
6.54649e-06
-2.82772e-07
6.54273e-06
-3.13468e-07
6.53541e-06
-2.59446e-07
6.52157e-06
-2.44229e-07
6.51191e-06
-2.27322e-07
6.50764e-06
-1.70196e-07
6.50179e-06
-1.13427e-07
6.49602e-06
-8.11983e-08
6.49456e-06
-4.57183e-08
-8.74759e-09
6.49629e-06
6.87151e-06
-2.12806e-07
6.89478e-06
3.97997e-08
6.91883e-06
7.10494e-08
6.90847e-06
-5.03345e-07
6.84464e-06
-1.01089e-06
6.82083e-06
-7.49538e-07
6.82644e-06
-3.6064e-07
6.83611e-06
-2.8128e-07
6.85528e-06
-1.84826e-07
6.86427e-06
-1.66639e-07
6.8583e-06
-2.76804e-07
6.85427e-06
-3.09439e-07
6.84811e-06
-2.53289e-07
6.83469e-06
-2.30805e-07
6.82413e-06
-2.16765e-07
6.82001e-06
-1.66078e-07
6.81521e-06
-1.08624e-07
6.80938e-06
-7.53705e-08
6.80744e-06
-4.37751e-08
-1.0178e-08
6.80887e-06
7.20146e-06
-1.9513e-07
7.22374e-06
1.75157e-08
7.24659e-06
4.82076e-08
7.23606e-06
-4.92822e-07
7.17531e-06
-9.5014e-07
7.15034e-06
-7.24571e-07
7.15605e-06
-3.66346e-07
7.1651e-06
-2.90327e-07
7.18253e-06
-2.02261e-07
7.19134e-06
-1.75448e-07
7.18501e-06
-2.70476e-07
7.18061e-06
-3.05038e-07
7.1756e-06
-2.48272e-07
7.16281e-06
-2.18015e-07
7.1515e-06
-2.05461e-07
7.14725e-06
-1.6183e-07
7.14362e-06
-1.04987e-07
7.13806e-06
-6.98144e-08
7.13561e-06
-4.13202e-08
-1.12288e-08
7.13666e-06
7.5473e-06
-1.78204e-07
7.56837e-06
-3.55319e-09
7.5904e-06
2.61784e-08
7.57892e-06
-4.81345e-07
7.52189e-06
-8.93105e-07
7.49597e-06
-6.98654e-07
7.50118e-06
-3.71554e-07
7.50981e-06
-2.98957e-07
7.52556e-06
-2.18012e-07
7.534e-06
-1.83889e-07
7.52736e-06
-2.63839e-07
7.52239e-06
-3.00067e-07
7.51839e-06
-2.44274e-07
7.50656e-06
-2.06186e-07
7.49468e-06
-1.93581e-07
7.49004e-06
-1.57185e-07
7.48756e-06
-1.02504e-07
7.48264e-06
-6.49017e-08
7.47972e-06
-3.83917e-08
-1.19164e-08
7.4804e-06
7.90979e-06
-1.62187e-07
7.92933e-06
-2.30933e-08
7.95103e-06
4.48373e-09
7.93793e-06
-4.6825e-07
7.88485e-06
-8.40025e-07
7.85854e-06
-6.72346e-07
7.86261e-06
-3.75617e-07
7.87086e-06
-3.07205e-07
7.88505e-06
-2.32205e-07
7.89295e-06
-1.91793e-07
7.88609e-06
-2.56971e-07
7.88023e-06
-2.94214e-07
7.87708e-06
-2.41122e-07
7.86651e-06
-1.95617e-07
7.85441e-06
-1.8148e-07
7.84909e-06
-1.51869e-07
7.84758e-06
-1.0099e-07
7.84373e-06
-6.10479e-08
7.84047e-06
-3.51376e-08
-1.22526e-08
7.84081e-06
8.28973e-06
-1.4724e-07
8.30738e-06
-4.074e-08
8.32918e-06
-1.73173e-08
8.3141e-06
-4.53166e-07
8.26476e-06
-7.90689e-07
8.23879e-06
-6.46369e-07
8.24131e-06
-3.78138e-07
8.24885e-06
-3.14744e-07
8.26164e-06
-2.44997e-07
8.26895e-06
-1.99102e-07
8.26181e-06
-2.49837e-07
8.25492e-06
-2.87321e-07
8.25223e-06
-2.38429e-07
8.24324e-06
-1.86633e-07
8.23137e-06
-1.69609e-07
8.22526e-06
-1.45759e-07
8.22431e-06
-1.00041e-07
8.22189e-06
-5.86254e-08
8.21859e-06
-3.18384e-08
-1.219e-08
8.21853e-06
8.68795e-06
-1.33529e-07
8.70335e-06
-5.61378e-08
8.72548e-06
-3.94506e-08
8.70853e-06
-4.36217e-07
8.66227e-06
-7.44421e-07
8.63735e-06
-6.21454e-07
8.63812e-06
-3.78905e-07
8.64451e-06
-3.21137e-07
8.65593e-06
-2.56419e-07
8.66257e-06
-2.05736e-07
8.65522e-06
-2.42494e-07
8.64722e-06
-2.79314e-07
8.64459e-06
-2.35801e-07
8.63742e-06
-1.7946e-07
8.62631e-06
-1.58502e-07
8.6195e-06
-1.38949e-07
8.61853e-06
-9.90747e-08
8.61775e-06
-5.78451e-08
8.6149e-06
-2.89843e-08
-1.15997e-08
8.61431e-06
9.10528e-06
-1.21194e-07
9.11813e-06
-6.89801e-08
9.14058e-06
-6.19027e-08
9.12243e-06
-4.18066e-07
9.07813e-06
-7.00126e-07
9.05475e-06
-5.98074e-07
9.05397e-06
-3.78119e-07
9.05866e-06
-3.25831e-07
9.06855e-06
-2.66314e-07
9.07451e-06
-2.11694e-07
9.06725e-06
-2.35227e-07
9.05807e-06
-2.70141e-07
9.05523e-06
-2.32959e-07
9.04995e-06
-1.7418e-07
9.03999e-06
-1.48545e-07
9.03281e-06
-1.31762e-07
9.03135e-06
-9.7615e-08
9.03191e-06
-5.84093e-08
9.03015e-06
-2.72219e-08
-1.04984e-08
9.02905e-06
9.5426e-06
-1.10332e-07
9.55276e-06
-7.91446e-08
9.57517e-06
-8.43136e-08
9.557e-06
-3.99895e-07
9.51331e-06
-6.56432e-07
9.49157e-06
-5.76331e-07
9.48965e-06
-3.76205e-07
9.49211e-06
-3.28292e-07
9.50024e-06
-2.74437e-07
9.5058e-06
-2.17262e-07
9.49904e-06
-2.2846e-07
9.48895e-06
-2.6005e-07
9.48551e-06
-2.29528e-07
9.48185e-06
-1.70517e-07
9.47334e-06
-1.40035e-07
9.4661e-06
-1.24522e-07
9.464e-06
-9.55147e-08
9.46518e-06
-5.95834e-08
9.465e-06
-2.70455e-08
-9.23697e-09
9.46374e-06
1.00008e-05
-1.00997e-07
1.00084e-05
-8.67122e-08
1.00301e-05
-1.06068e-07
1.00133e-05
-3.83078e-07
9.96931e-06
-6.12437e-07
9.94855e-06
-5.55574e-07
9.94594e-06
-3.73594e-07
9.94599e-06
-3.28346e-07
9.95218e-06
-2.80619e-07
9.95757e-06
-2.22658e-07
9.95167e-06
-2.2256e-07
9.94121e-06
-2.49587e-07
9.93677e-06
-2.25086e-07
9.93428e-06
-1.68028e-07
9.92731e-06
-1.33062e-07
9.92034e-06
-1.17556e-07
9.91764e-06
-9.28151e-08
9.91877e-06
-6.0716e-08
9.92007e-06
-2.83417e-08
-8.50357e-09
9.91933e-06
1.04808e-05
-9.31758e-08
1.04861e-05
-9.19539e-08
1.05064e-05
-1.26424e-07
1.0492e-05
-3.68652e-07
1.04477e-05
-5.68184e-07
1.0427e-05
-5.34811e-07
1.04245e-05
-3.71074e-07
1.04222e-05
-3.26084e-07
1.04257e-05
-2.84118e-07
1.04309e-05
-2.27904e-07
1.04263e-05
-2.17948e-07
1.04159e-05
-2.39118e-07
1.04104e-05
-2.1961e-07
1.04085e-05
-1.66108e-07
1.04029e-05
-1.27527e-07
1.03965e-05
-1.11098e-07
1.03933e-05
-8.96968e-08
1.03941e-05
-6.14345e-08
1.03963e-05
-3.05606e-08
-8.91193e-09
1.03967e-05
1.09836e-05
-8.67913e-08
1.09869e-05
-9.52602e-08
1.10052e-05
-1.44675e-07
1.09937e-05
-3.57166e-07
1.09499e-05
-5.24376e-07
1.09282e-05
-5.13083e-07
1.09264e-05
-3.6927e-07
1.09226e-05
-3.2235e-07
1.09227e-05
-2.84183e-07
1.09272e-05
-2.32411e-07
1.09239e-05
-2.14608e-07
1.0914e-05
-2.2921e-07
1.09075e-05
-2.13183e-07
1.09057e-05
-1.64254e-07
1.09013e-05
-1.2318e-07
1.08955e-05
-1.05281e-07
1.08922e-05
-8.63794e-08
1.08924e-05
-6.15957e-08
1.08949e-05
-3.31337e-08
-1.05519e-08
1.08966e-05
1.15103e-05
-8.16937e-08
1.15121e-05
-9.70706e-08
1.15276e-05
-1.6023e-07
1.15192e-05
-3.48759e-07
1.14769e-05
-4.82074e-07
1.14536e-05
-4.89719e-07
1.14521e-05
-3.67763e-07
1.14484e-05
-3.18684e-07
1.14453e-05
-2.81095e-07
1.14478e-05
-2.34885e-07
1.14452e-05
-2.12053e-07
1.14363e-05
-2.20304e-07
1.14293e-05
-2.0613e-07
1.14271e-05
-1.62125e-07
1.14238e-05
-1.19804e-07
1.14186e-05
-1.00089e-07
1.14152e-05
-8.30218e-08
1.14149e-05
-6.13012e-08
1.14173e-05
-3.55317e-08
-1.32082e-08
1.142e-05
1.20618e-05
-7.76551e-08
1.20626e-05
-9.79214e-08
1.2075e-05
-1.72593e-07
1.20695e-05
-3.43223e-07
1.20299e-05
-4.42467e-07
1.20044e-05
-4.64221e-07
1.20022e-05
-3.65611e-07
1.19998e-05
-3.16311e-07
1.19945e-05
-2.75808e-07
1.19941e-05
-2.34472e-07
1.19916e-05
-2.09558e-07
1.19838e-05
-2.12505e-07
1.19766e-05
-1.9892e-07
1.1974e-05
-1.59529e-07
1.19714e-05
-1.17158e-07
1.19668e-05
-9.55518e-08
1.19635e-05
-7.9662e-08
1.19629e-05
-6.06915e-08
1.19648e-05
-3.74843e-08
-1.64198e-08
1.1968e-05
1.26393e-05
-7.43949e-08
1.26398e-05
-9.83475e-08
1.26485e-05
-1.81351e-07
1.26453e-05
-3.39986e-07
1.26097e-05
-4.06911e-07
1.25821e-05
-4.36593e-07
1.25779e-05
-3.61411e-07
1.25774e-05
-3.15852e-07
1.25713e-05
-2.69626e-07
1.25678e-05
-2.30998e-07
1.25645e-05
-2.06259e-07
1.25576e-05
-2.05611e-07
1.25506e-05
-1.91897e-07
1.25476e-05
-1.56584e-07
1.25455e-05
-1.15013e-07
1.25416e-05
-9.16573e-08
1.25383e-05
-7.64024e-08
1.25374e-05
-5.97872e-08
1.25389e-05
-3.89507e-08
-1.96785e-08
1.25421e-05
1.32441e-05
-7.1565e-08
1.32447e-05
-9.89371e-08
1.32497e-05
-1.86366e-07
1.32479e-05
-3.38209e-07
1.32173e-05
-3.76322e-07
1.3188e-05
-4.07258e-07
1.31805e-05
-3.53931e-07
1.31815e-05
-3.16857e-07
1.31761e-05
-2.642e-07
1.31702e-05
-2.25066e-07
1.31654e-05
-2.01459e-07
1.31589e-05
-1.9918e-07
1.31523e-05
-1.85241e-07
1.31491e-05
-1.53373e-07
1.31473e-05
-1.13201e-07
1.3144e-05
-8.83915e-08
1.31408e-05
-7.32413e-08
1.31398e-05
-5.87324e-08
1.31408e-05
-3.99742e-08
-2.26054e-08
1.31437e-05
1.38774e-05
-6.87959e-08
1.38789e-05
-1.00422e-07
1.38801e-05
-1.87565e-07
1.38786e-05
-3.36725e-07
1.38535e-05
-3.5119e-07
1.38236e-05
-3.77386e-07
1.3812e-05
-3.42379e-07
1.38127e-05
-3.17501e-07
1.38093e-05
-2.60771e-07
1.38023e-05
-2.18136e-07
1.37958e-05
-1.94889e-07
1.37893e-05
-1.92689e-07
1.37829e-05
-1.78917e-07
1.37797e-05
-1.5009e-07
1.37781e-05
-1.11679e-07
1.37755e-05
-8.57862e-08
1.37725e-05
-7.02498e-08
1.37713e-05
-5.74818e-08
1.3772e-05
-4.06945e-08
-2.4972e-08
1.37744e-05
1.45407e-05
-6.5808e-08
1.45433e-05
-1.03029e-07
1.45399e-05
-1.84172e-07
1.45382e-05
-3.34986e-07
1.45187e-05
-3.31703e-07
1.44899e-05
-3.48589e-07
1.4474e-05
-3.26525e-07
1.44722e-05
-3.15721e-07
1.44715e-05
-2.60014e-07
1.44655e-05
-2.12184e-07
1.44574e-05
-1.86731e-07
1.44501e-05
-1.85463e-07
1.44439e-05
-1.72656e-07
1.44405e-05
-1.46731e-07
1.44393e-05
-1.10456e-07
1.44374e-05
-8.38393e-08
1.44347e-05
-6.75787e-08
1.44332e-05
-5.59972e-08
1.44338e-05
-4.12512e-08
-2.67874e-08
1.44356e-05
1.52352e-05
-6.21593e-08
1.52343e-05
-1.02104e-07
1.5228e-05
-1.77859e-07
1.52281e-05
-3.35057e-07
1.52149e-05
-3.18499e-07
1.51877e-05
-3.21377e-07
1.51682e-05
-3.07031e-07
1.51625e-05
-3.10049e-07
1.51635e-05
-2.61005e-07
1.51601e-05
-2.08812e-07
1.51515e-05
-1.78172e-07
1.51433e-05
-1.77188e-07
1.51368e-05
-1.66188e-07
1.51332e-05
-1.4317e-07
1.51323e-05
-1.09471e-07
1.5131e-05
-8.25364e-08
1.51287e-05
-6.53471e-08
1.5127e-05
-5.43074e-08
1.51274e-05
-4.15974e-08
-2.82117e-08
1.51288e-05
1.59635e-05
-5.83541e-08
1.59791e-05
-1.17635e-07
1.59743e-05
-1.7315e-07
1.59648e-05
-3.25461e-07
1.59463e-05
-3.00011e-07
1.59181e-05
-2.9321e-07
1.58968e-05
-2.85777e-07
1.58875e-05
-3.00749e-07
1.58877e-05
-2.61138e-07
1.58871e-05
-2.08224e-07
1.58794e-05
-1.70498e-07
1.58701e-05
-1.67898e-07
1.58631e-05
-1.59132e-07
1.58592e-05
-1.39318e-07
1.58583e-05
-1.08513e-07
1.58575e-05
-8.17859e-08
1.58559e-05
-6.37563e-08
1.58542e-05
-5.25867e-08
1.58542e-05
-4.16421e-08
-2.94404e-08
1.58555e-05
1.67253e-05
-5.3032e-08
1.67228e-05
-1.15181e-07
1.67128e-05
-1.63118e-07
1.67058e-05
-3.18463e-07
1.67008e-05
-2.95035e-07
1.66828e-05
-2.75173e-07
1.66617e-05
-2.64679e-07
1.66489e-05
-2.87956e-07
1.66462e-05
-2.58481e-07
1.66476e-05
-2.0959e-07
1.66421e-05
-1.65007e-07
1.66326e-05
-1.58405e-07
1.66249e-05
-1.51382e-07
1.66204e-05
-1.349e-07
1.66193e-05
-1.07376e-07
1.66189e-05
-8.14164e-08
1.6618e-05
-6.2773e-08
1.66165e-05
-5.11191e-08
1.66161e-05
-4.12993e-08
-3.04874e-08
1.66172e-05
1.75253e-05
-4.80215e-08
1.75367e-05
-1.26567e-07
1.75241e-05
-1.50457e-07
1.75032e-05
-2.97572e-07
1.74949e-05
-2.86702e-07
1.74828e-05
-2.63167e-07
1.74637e-05
-2.45581e-07
1.74485e-05
-2.72723e-07
1.74421e-05
-2.52076e-07
1.74434e-05
-2.10892e-07
1.74405e-05
-1.62045e-07
1.74316e-05
-1.49576e-07
1.74232e-05
-1.42939e-07
1.74182e-05
-1.29908e-07
1.74166e-05
-1.05751e-07
1.74165e-05
-8.13729e-08
1.7416e-05
-6.22836e-08
1.7415e-05
-5.01273e-08
1.74145e-05
-4.07314e-08
-3.12737e-08
1.74153e-05
1.83624e-05
-4.20311e-08
1.83612e-05
-1.25426e-07
1.83525e-05
-1.4171e-07