/*--------------------------------*- C++ -*----------------------------------*\
| =========                 |                                                 |
| \\      /  F ield         | OpenFOAM: The Open Source CFD Toolbox           |
|  \\    /   O peration     | Version:  v2012                                 |
|   \\  /    A nd           | Website:  www.openfoam.com                      |
|    \\/     M anipulation  |                                                 |
\*---------------------------------------------------------------------------*/
FoamFile
{
    version     2.0;
    format      ascii;
    class       volVectorField;
    location    "11";
    object      U;
}
// * * * * * * * * * * * * * * * * * * * * * * * * * * * * * * * * * * * * * //

dimensions      [0 1 -1 0 0 0 0];


internalField   nonuniform List<vector> 
9600
(
(0.666265 -0.00624151 0)
(1.33173 0.0131268 0)
(0.702599 0.00187627 0)
(1.1353 -0.014499 0)
(0.841715 -0.0372183 0)
(1.32084 -0.00453834 0)
(0.853416 0.00346292 0)
(1.23047 0.0146256 0)
(0.845068 0.00559361 0)
(1.1375 -0.0016844 0)
(0.908258 -0.022429 0)
(1.15593 -0.0215237 0)
(0.924762 -0.0225865 0)
(1.15095 -0.0144762 0)
(0.920438 -0.0131074 0)
(1.16139 -0.00732632 0)
(0.921286 -0.00742875 0)
(1.17575 -0.00312287 0)
(0.920823 -0.00253144 0)
(1.17845 0.00039166 0)
(0.686748 -0.00644497 0)
(1.31614 0.0130357 0)
(0.764447 0.00342398 0)
(1.08904 -0.0155277 0)
(0.850525 -0.0399815 0)
(1.29665 -0.00447447 0)
(0.886216 0.00403762 0)
(1.20179 0.0149234 0)
(0.91134 0.00659537 0)
(1.10571 -0.00221821 0)
(0.973206 -0.0229574 0)
(1.1101 -0.021715 0)
(0.975276 -0.0226523 0)
(1.10269 -0.014305 0)
(0.978326 -0.0134168 0)
(1.10241 -0.00741096 0)
(0.999151 -0.00765052 0)
(1.09461 -0.00356193 0)
(1.02837 -0.00172377 0)
(1.06252 0.00045268 0)
(0.724476 -0.00665876 0)
(1.28186 0.0128404 0)
(0.840315 0.0049051 0)
(1.04186 -0.0158143 0)
(0.87146 -0.0417967 0)
(1.2476 -0.00466506 0)
(0.938793 0.0048975 0)
(1.15841 0.0149858 0)
(0.98338 0.00746233 0)
(1.08412 -0.00276228 0)
(1.0156 -0.022829 0)
(1.06623 -0.021665 0)
(1.00692 -0.0224076 0)
(1.05553 -0.0144829 0)
(1.01412 -0.0133734 0)
(1.05751 -0.0080458 0)
(1.03633 -0.00734416 0)
(1.05885 -0.00450883 0)
(1.05436 -0.000871737 0)
(1.05221 0.000708997 0)
(0.775074 -0.00683037 0)
(1.23137 0.0122542 0)
(0.908107 0.00653299 0)
(1.00245 -0.0157921 0)
(0.894489 -0.0436939 0)
(1.18099 -0.00534859 0)
(0.987432 0.00566108 0)
(1.11857 0.01457 0)
(1.03585 0.00802189 0)
(1.07732 -0.00293923 0)
(1.04051 -0.0223357 0)
(1.04137 -0.0214766 0)
(1.01557 -0.0221275 0)
(1.02797 -0.0146928 0)
(1.01968 -0.0134344 0)
(1.03642 -0.00863174 0)
(1.03945 -0.00742283 0)
(1.04939 -0.00504303 0)
(1.05334 -0.00076259 0)
(1.05548 0.00129899 0)
(0.831326 -0.00696245 0)
(1.17194 0.0114439 0)
(0.958448 0.00811942 0)
(0.978177 -0.0154797 0)
(0.913022 -0.0451213 0)
(1.11013 -0.0063583 0)
(1.01873 0.00605879 0)
(1.09207 0.0140008 0)
(1.06761 0.00826447 0)
(1.08165 -0.0028177 0)
(1.05384 -0.0215277 0)
(1.03178 -0.0209956 0)
(1.01342 -0.0217323 0)
(1.01377 -0.0148428 0)
(1.01374 -0.0135671 0)
(1.02448 -0.00924005 0)
(1.0333 -0.0076757 0)
(1.04261 -0.0056359 0)
(1.04932 -0.000845424 0)
(1.05373 0.00155378 0)
(0.884897 -0.00704114 0)
(1.11366 0.0106479 0)
(0.99002 0.00947304 0)
(0.970512 -0.0149564 0)
(0.924982 -0.046076 0)
(1.04839 -0.00756389 0)
(1.03224 0.00597077 0)
(1.07996 0.0133816 0)
(1.08611 0.00819531 0)
(1.09029 -0.00248989 0)
(1.06217 -0.0204632 0)
(1.02977 -0.0202648 0)
(1.00994 -0.021192 0)
(1.0055 -0.0149469 0)
(1.00679 -0.0136989 0)
(1.01532 -0.00988056 0)
(1.02594 -0.00804861 0)
(1.03518 -0.006296 0)
(1.04386 -0.001154 0)
(1.04978 0.00161771 0)
(0.928958 -0.00706274 0)
(1.06563 0.00998317 0)
(1.00685 0.0104677 0)
(0.975835 -0.0142788 0)
(0.932366 -0.0465181 0)
(1.00408 -0.00885328 0)
(1.03455 0.0053371 0)
(1.0779 0.0126094 0)
(1.09766 0.00792358 0)
(1.09804 -0.00203252 0)
(1.06729 -0.0191814 0)
(1.02997 -0.0193295 0)
(1.00774 -0.0204866 0)
(1.0002 -0.014989 0)
(1.00123 -0.0137996 0)
(1.00798 -0.010521 0)
(1.01885 -0.00848924 0)
(1.02783 -0.00696594 0)
(1.03718 -0.00165189 0)
(1.04454 0.00154818 0)
(0.960099 -0.00704263 0)
(1.03243 0.00948179 0)
(1.015 0.0110583 0)
(0.988153 -0.0135158 0)
(0.938236 -0.0465209 0)
(0.978382 -0.0101609 0)
(1.03265 0.00419972 0)
(1.0801 0.0116221 0)
(1.10436 0.00757085 0)
(1.10182 -0.00147197 0)
(1.06884 -0.0177312 0)
(1.0298 -0.0182552 0)
(1.00657 -0.0196512 0)
(0.996835 -0.0149574 0)
(0.997081 -0.0138576 0)
(1.00205 -0.0111181 0)
(1.0122 -0.00895909 0)
(1.0206 -0.00761381 0)
(1.02976 -0.00227758 0)
(1.03801 0.00136862 0)
(0.978681 -0.00699956 0)
(1.0133 0.00911157 0)
(1.01947 0.0112905 0)
(1.00205 -0.0127267 0)
(0.944625 -0.0461704 0)
(0.967293 -0.0114502 0)
(1.03032 0.00272647 0)
(1.08164 0.0104675 0)
(1.10546 0.00722247 0)
(1.1 -0.000822908 0)
(1.06637 -0.0161755 0)
(1.02826 -0.0171216 0)
(1.00577 -0.0187374 0)
(0.994839 -0.0148498 0)
(0.994027 -0.0138528 0)
(0.997054 -0.0116286 0)
(1.00579 -0.00942843 0)
(1.0132 -0.0081995 0)
(1.02162 -0.00300088 0)
(1.03013 0.0010885 0)
(0.987737 -0.00694253 0)
(1.00408 0.00879937 0)
(1.02258 0.0112715 0)
(1.01408 -0.0119327 0)
(0.952202 -0.0455653 0)
(0.9651 -0.0127221 0)
(1.02798 0.00111208 0)
(1.07933 0.00924141 0)
(1.09991 0.00695003 0)
(1.09219 -0.000110298 0)
(1.06016 -0.0145966 0)
(1.02518 -0.0160141 0)
(1.00488 -0.0178041 0)
(0.993787 -0.0146733 0)
(0.991834 -0.0137697 0)
(0.992871 -0.0120101 0)
(0.999573 -0.00985429 0)
(1.00557 -0.00868792 0)
(1.01279 -0.00375282 0)
(1.02102 0.000721341 0)
(0.991191 -0.00687091 0)
(1.00013 0.00848698 0)
(1.02437 0.0110687 0)
(1.02265 -0.0111597 0)
(0.960826 -0.0447828 0)
(0.966875 -0.0139215 0)
(1.02431 -0.000481994 0)
(1.07159 0.00804809 0)
(1.08773 0.00677618 0)
(1.07922 0.000606392 0)
(1.05113 -0.013091 0)
(1.0209 -0.0150045 0)
(1.00367 -0.01691 0)
(0.993324 -0.0144444 0)
(0.990391 -0.0136077 0)
(0.989655 -0.0122324 0)
(0.994004 -0.010188 0)
(0.998221 -0.00905088 0)
(1.00381 -0.00445332 0)
(1.01119 0.000298708 0)
(0.992297 -0.00678298 0)
(0.998271 0.00815482 0)
(1.02429 0.0107373 0)
(1.02736 -0.0104568 0)
(0.969943 -0.0438706 0)
(0.969344 -0.0149647 0)
(1.01807 -0.00192267 0)
(1.05852 0.00697395 0)
(1.0704 0.00668113 0)
(1.06301 0.00124482 0)
(1.04072 -0.0117473 0)
(1.01603 -0.0141434 0)
(1.00215 -0.0161039 0)
(0.993151 -0.0141899 0)
(0.989624 -0.013382 0)
(0.987601 -0.0122959 0)
(0.989712 -0.0103991 0)
(0.991986 -0.00925966 0)
(0.995649 -0.00505623 0)
(1.00163 -0.000148745 0)
(0.992921 -0.0066802 0)
(0.996995 0.00781573 0)
(1.02243 0.0103369 0)
(1.0287 -0.00986333 0)
(0.978686 -0.042879 0)
(0.970963 -0.0157732 0)
(1.0094 -0.00311503 0)
(1.0419 0.00605445 0)
(1.05076 0.00662704 0)
(1.04613 0.00172993 0)
(1.03048 -0.0106245 0)
(1.01123 -0.0134559 0)
(1.00047 -0.0154139 0)
(0.993044 -0.0139356 0)
(0.989399 -0.013126 0)
(0.986695 -0.0122274 0)
(0.987074 -0.0104882 0)
(0.987539 -0.0093014 0)
(0.989253 -0.00551815 0)
(0.993468 -0.000556734 0)
(0.993716 -0.00656455 0)
(0.99588 0.00748829 0)
(1.0196 0.00991675 0)
(1.02781 -0.00940106 0)
(0.986112 -0.0418482 0)
(0.971599 -0.0163127 0)
(0.999995 -0.0040208 0)
(1.02482 0.00527889 0)
(1.03208 0.00655864 0)
(1.03104 0.00201799 0)
(1.02167 -0.00974156 0)
(1.00704 -0.0129361 0)
(0.998846 -0.0148429 0)
(0.992878 -0.0137015 0)
(0.989502 -0.0128748 0)
(0.986652 -0.0120678 0)
(0.985979 -0.0104696 0)
(0.985012 -0.00920356 0)
(0.985054 -0.00579612 0)
(0.987409 -0.000870625 0)
(0.994684 -0.00643998 0)
(0.994926 0.00718563 0)
(1.01669 0.00949916 0)
(1.02591 -0.00906444 0)
(0.991645 -0.0407973 0)
(0.97182 -0.0166215 0)
(0.991908 -0.00465707 0)
(1.01027 0.00461218 0)
(1.01689 0.00643527 0)
(1.01926 0.00209667 0)
(1.01493 -0.00907856 0)
(1.00374 -0.0125482 0)
(0.997427 -0.0143782 0)
(0.992628 -0.0134947 0)
(0.989707 -0.0126482 0)
(0.98705 -0.011863 0)
(0.985932 -0.0103644 0)
(0.984015 -0.00900919 0)
(0.982851 -0.00589179 0)
(0.983558 -0.00108223 0)
(0.995648 -0.00630973 0)
(0.994199 0.00691247 0)
(1.01422 0.00908448 0)
(1.02388 -0.00882735 0)
(0.995291 -0.0397352 0)
(0.972157 -0.0167549 0)
(0.986307 -0.00507836 0)
(0.999793 0.0040192 0)
(1.00613 0.00624451 0)
(1.01107 0.00200659 0)
(1.01026 -0.00858945 0)
(1.00136 -0.0122462 0)
(0.996298 -0.0139968 0)
(0.992335 -0.0133121 0)
(0.989864 -0.0124525 0)
(0.987521 -0.011644 0)
(0.986355 -0.0102053 0)
(0.983923 -0.0087479 0)
(0.982043 -0.00584945 0)
(0.98151 -0.00119659 0)
(0.996474 -0.00617486 0)
(0.993728 0.00666356 0)
(1.01228 0.00867033 0)
(1.02211 -0.00865994 0)
(0.997462 -0.0386668 0)
(0.97279 -0.0167556 0)
(0.983129 -0.00533776 0)
(0.993273 0.00347644 0)
(0.999302 0.00599839 0)
(1.00584 0.00179483 0)
(1.00724 -0.00822713 0)
(0.999758 -0.0119902 0)
(0.995465 -0.0136744 0)
(0.992062 -0.0131412 0)
(0.989925 -0.0122812 0)
(0.987865 -0.0114288 0)
(0.986826 -0.0100174 0)
(0.984185 -0.00844736 0)
(0.981981 -0.00570737 0)
(0.980654 -0.00123614 0)
(0.997094 -0.00603569 0)
(0.993506 0.00642899 0)
(1.01081 0.00826366 0)
(1.02067 -0.00854032 0)
(0.998656 -0.0375841 0)
(0.973646 -0.0166887 0)
(0.981635 -0.00548645 0)
(0.989642 0.00296844 0)
(0.995258 0.00571606 0)
(1.00265 0.00150831 0)
(1.00536 -0.0079535 0)
(0.998762 -0.0117516 0)
(0.994895 -0.0133911 0)
(0.991856 -0.0129744 0)
(0.98991 -0.0121163 0)
(0.988041 -0.0112246 0)
(0.987148 -0.00981087 0)
(0.984467 -0.0081291 0)
(0.982182 -0.0055021 0)
(0.980438 -0.00122128 0)
(0.997491 -0.00589301 0)
(0.993505 0.00620247 0)
(1.00968 0.00786648 0)
(1.01951 -0.00845453 0)
(0.99926 -0.0364849 0)
(0.974589 -0.0165812 0)
(0.981065 -0.00556701 0)
(0.987765 0.00248027 0)
(0.992925 0.0054063 0)
(1.0007 0.00119246 0)
(1.00419 -0.00774521 0)
(0.9982 -0.0115137 0)
(0.994542 -0.0131279 0)
(0.99174 -0.0128103 0)
(0.989862 -0.0119473 0)
(0.988098 -0.0110233 0)
(0.987298 -0.00959788 0)
(0.984649 -0.00780515 0)
(0.982399 -0.00526565 0)
(0.980498 -0.00117111 0)
(0.997675 -0.00574668 0)
(0.993686 0.0059778 0)
(1.00883 0.00747798 0)
(1.01855 -0.00839031 0)
(0.999512 -0.0353724 0)
(0.97553 -0.0164441 0)
(0.980936 -0.00559805 0)
(0.986865 0.00200362 0)
(0.991587 0.00507484 0)
(0.999503 0.000861571 0)
(1.00344 -0.00759238 0)
(0.997931 -0.0112676 0)
(0.994352 -0.0128707 0)
(0.991713 -0.0126453 0)
(0.989818 -0.0117689 0)
(0.988102 -0.0108231 0)
(0.987337 -0.00937593 0)
(0.984744 -0.00748703 0)
(0.982565 -0.00501803 0)
(0.980658 -0.00110451 0)
(0.997677 -0.00559629 0)
(0.994 0.00574956 0)
(1.00818 0.00709725 0)
(1.01774 -0.00833924 0)
(0.999555 -0.0342467 0)
(0.976438 -0.0162947 0)
(0.981031 -0.00559795 0)
(0.986525 0.00153366 0)
(0.99085 0.00472439 0)
(0.998769 0.000530614 0)
(1.00294 -0.00748387 0)
(0.997845 -0.0110116 0)
(0.994276 -0.0126127 0)
(0.991761 -0.0124772 0)
(0.9898 -0.011578 0)
(0.988109 -0.0106128 0)
(0.987338 -0.00914684 0)
(0.98481 -0.00717956 0)
(0.982706 -0.00476712 0)
(0.980875 -0.0010298 0)
(0.997543 -0.00544141 0)
(0.994391 0.00551297 0)
(1.00768 0.00672465 0)
(1.01704 -0.008296 0)
(0.999477 -0.0331102 0)
(0.977314 -0.0161333 0)
(0.981276 -0.00558078 0)
(0.986535 0.00106476 0)
(0.990497 0.00435164 0)
(0.99832 0.000206612 0)
(1.00258 -0.00740784 0)
(0.997851 -0.0107504 0)
(0.99427 -0.0123476 0)
(0.991865 -0.0123046 0)
(0.989825 -0.0113721 0)
(0.988148 -0.010384 0)
(0.987361 -0.0089179 0)
(0.984904 -0.00687332 0)
(0.982872 -0.00451651 0)
(0.981161 -0.00096804 0)
(0.997337 -0.00528106 0)
(0.994804 0.00526401 0)
(1.00728 0.0063582 0)
(1.01637 -0.00825575 0)
(0.999339 -0.0319649 0)
(0.978163 -0.0159595 0)
(0.981646 -0.00555426 0)
(0.98677 0.000597039 0)
(0.990389 0.00395611 0)
(0.998026 -0.000105374 0)
(1.00231 -0.00735547 0)
(0.997885 -0.0104883 0)
(0.994305 -0.0120695 0)
(0.992005 -0.0121252 0)
(0.989902 -0.0111504 0)
(0.988233 -0.0101401 0)
(0.987439 -0.00868297 0)
(0.985057 -0.00656995 0)
(0.983096 -0.00426472 0)
(0.981529 -0.000926392 0)
(0.99712 -0.00511461 0)
(0.995192 0.00499996 0)
(1.00694 0.00600206 0)
(1.0157 -0.00821392 0)
(0.999182 -0.0308106 0)
(0.978984 -0.0157788 0)
(0.98212 -0.00552457 0)
(0.987137 0.00013112 0)
(0.990425 0.00354263 0)
(0.997793 -0.000404623 0)
(1.00206 -0.00732332 0)
(0.997905 -0.0102269 0)
(0.994359 -0.0117774 0)
(0.992162 -0.0119366 0)
(0.990035 -0.0109153 0)
(0.988366 -0.0098806 0)
(0.987587 -0.00844654 0)
(0.985279 -0.0062737 0)
(0.983386 -0.00399777 0)
(0.981979 -0.000897252 0)
(0.996947 -0.00494147 0)
(0.995523 0.00472076 0)
(1.00663 0.00565395 0)
(1.015 -0.00816766 0)
(0.999033 -0.0296518 0)
(0.97977 -0.0155896 0)
(0.982666 -0.00549748 0)
(0.987566 -0.000331235 0)
(0.990533 0.00311402 0)
(0.997565 -0.000687519 0)
(1.00183 -0.00730821 0)
(0.997893 -0.00997133 0)
(0.99442 -0.0114691 0)
(0.99232 -0.0117439 0)
(0.990219 -0.0106701 0)
(0.988541 -0.00960072 0)
(0.987808 -0.00821353 0)
(0.985571 -0.00599794 0)
(0.98374 -0.00370392 0)
(0.982488 -0.000872816 0)
(0.996852 -0.00476165 0)
(0.99579 0.00442804 0)
(1.00634 0.00531008 0)
(1.01426 -0.00811661 0)
(0.998907 -0.0284939 0)
(0.980518 -0.0153876 0)
(0.983251 -0.00547981 0)
(0.988012 -0.000789354 0)
(0.990671 0.00267109 0)
(0.997312 -0.00095022 0)
(1.0016 -0.00730271 0)
(0.997844 -0.00972996 0)
(0.994482 -0.0111445 0)
(0.992466 -0.0115482 0)
(0.990445 -0.0104258 0)
(0.988746 -0.00930041 0)
(0.988089 -0.00797237 0)
(0.985926 -0.00576542 0)
(0.984148 -0.00340048 0)
(0.983032 -0.000825307 0)
(0.996842 -0.00457635 0)
(0.996002 0.00412421 0)
(1.00605 0.00497196 0)
(1.0135 -0.00805451 0)
(0.998809 -0.0273387 0)
(0.981237 -0.0151773 0)
(0.983845 -0.00546984 0)
(0.988451 -0.00123558 0)
(0.990815 0.00221613 0)
(0.99703 -0.00119158 0)
(1.00137 -0.00729927 0)
(0.997762 -0.00949891 0)
(0.994536 -0.0108061 0)
(0.992591 -0.0113422 0)
(0.990702 -0.010191 0)
(0.988971 -0.00898151 0)
(0.988413 -0.0077217 0)
(0.986331 -0.00557142 0)
(0.984605 -0.00312576 0)
(0.983588 -0.000725278 0)
(0.996905 -0.00438546 0)
(0.996179 0.00381228 0)
(1.00575 0.00463527 0)
(1.01275 -0.0079802 0)
(0.99874 -0.0261891 0)
(0.981943 -0.014956 0)
(0.98443 -0.00546967 0)
(0.98887 -0.0016687 0)
(0.990951 0.00174922 0)
(0.99672 -0.00141789 0)
(1.00113 -0.00729877 0)
(0.997654 -0.00928205 0)
(0.994572 -0.0104515 0)
(0.992689 -0.0111155 0)
(0.990975 -0.00996349 0)
(0.989204 -0.0086553 0)
(0.988757 -0.00746033 0)
(0.98677 -0.00539797 0)
(0.985103 -0.00289651 0)
(0.984145 -0.000592937 0)
(0.997016 -0.00419121 0)
(0.996344 0.00349577 0)
(1.00545 0.00429994 0)
(1.01201 -0.00789693 0)
(0.998697 -0.0250488 0)
(0.982657 -0.0147166 0)
(0.985 -0.00548101 0)
(0.989265 -0.00209248 0)
(0.99107 0.00126958 0)
(0.996387 -0.00163082 0)
(1.00088 -0.00730244 0)
(0.997532 -0.00909167 0)
(0.994585 -0.0100897 0)
(0.992759 -0.0108656 0)
(0.991252 -0.00974398 0)
(0.98944 -0.00833665 0)
(0.989103 -0.00717923 0)
(0.987225 -0.00522982 0)
(0.985629 -0.0027125 0)
(0.984696 -0.000450593 0)
(0.997148 -0.0039937 0)
(0.99651 0.0031771 0)
(1.00513 0.00396196 0)
(1.01129 -0.00779843 0)
(0.998674 -0.023922 0)
(0.983392 -0.0144656 0)
(0.985557 -0.0054998 0)
(0.989638 -0.00249879 0)
(0.99117 0.000778965 0)
(0.996038 -0.00182565 0)
(1.0006 -0.0073012 0)
(0.997402 -0.00891806 0)
(0.994572 -0.00972863 0)
(0.992801 -0.010593 0)
(0.991523 -0.00953659 0)
(0.989677 -0.00802401 0)
(0.98944 -0.00689158 0)
(0.987681 -0.00507068 0)
(0.986174 -0.00256018 0)
(0.985241 -0.000311216 0)
(0.997281 -0.0037937 0)
(0.996685 0.00285977 0)
(1.00481 0.00362097 0)
(1.01059 -0.00768846 0)
(0.998659 -0.0228109 0)
(0.984152 -0.014201 0)
(0.986108 -0.00552387 0)
(0.989996 -0.00288693 0)
(0.99126 0.00027969 0)
(0.995684 -0.00200588 0)
(1.0003 -0.0072874 0)
(0.997277 -0.00876424 0)
(0.994535 -0.00936448 0)
(0.992821 -0.010297 0)
(0.991784 -0.00933297 0)
(0.989917 -0.00771451 0)
(0.989759 -0.00659549 0)
(0.988133 -0.00492224 0)
(0.986729 -0.00244409 0)
(0.98578 -0.000201658 0)
(0.997406 -0.00359353 0)
(0.99687 0.00254574 0)
(1.00449 0.003279 0)
(1.00991 -0.00756806 0)
(0.998645 -0.0217164 0)
(0.984932 -0.0139241 0)
(0.986663 -0.00555259 0)
(0.990348 -0.00324847 0)
(0.991351 -0.000225956 0)
(0.995338 -0.00217837 0)
(0.99998 -0.00725631 0)
(0.997165 -0.00863624 0)
(0.994481 -0.00900561 0)
(0.99282 -0.00997275 0)
(0.992032 -0.00912909 0)
(0.990163 -0.00741725 0)
(0.990054 -0.00628265 0)
(0.988569 -0.00477388 0)
(0.987286 -0.00237359 0)
(0.986316 -0.0001229 0)
(0.997518 -0.00339244 0)
(0.997063 0.00223748 0)
(1.00418 0.00293407 0)
(1.00923 -0.00743718 0)
(0.998621 -0.0206389 0)
(0.985721 -0.013639 0)
(0.987227 -0.00558537 0)
(0.990701 -0.00358018 0)
(0.991457 -0.000736019 0)
(0.99501 -0.00235428 0)
(0.999656 -0.00720182 0)
(0.997072 -0.00852671 0)
(0.994422 -0.00866352 0)
(0.992806 -0.00961734 0)
(0.992267 -0.00892604 0)
(0.990422 -0.00714303 0)
(0.990328 -0.00595635 0)
(0.988984 -0.00461411 0)
(0.987842 -0.00233272 0)
(0.986856 -8.02461e-05 0)
(0.99762 -0.00319308 0)
(0.997261 0.00193943 0)
(1.00388 0.0025909 0)
(1.00856 -0.00729926 0)
(0.998586 -0.0195802 0)
(0.986507 -0.013345 0)
(0.987801 -0.00562314 0)
(0.991056 -0.0038874 0)
(0.991585 -0.00124397 0)
(0.994709 -0.00253699 0)
(0.99933 -0.00712899 0)
(0.997001 -0.00842569 0)
(0.994368 -0.00833866 0)
(0.99278 -0.00923912 0)
(0.992489 -0.00871598 0)
(0.990699 -0.00690013 0)
(0.990586 -0.0056285 0)
(0.989372 -0.00443116 0)
(0.988389 -0.00230503 0)
(0.987405 -9.24708e-05 0)
(0.997714 -0.00299515 0)
(0.997463 0.00164691 0)
(1.00359 0.0022503 0)
(1.0079 -0.00715422 0)
(0.998539 -0.0185452 0)
(0.987282 -0.0130417 0)
(0.988383 -0.00567226 0)
(0.991414 -0.00416284 0)
(0.991738 -0.00173901 0)
(0.994438 -0.00272328 0)
(0.999009 -0.00703974 0)
(0.996953 -0.00832818 0)
(0.994326 -0.00803722 0)
(0.992746 -0.0088456 0)
(0.992697 -0.00848937 0)
(0.990995 -0.0066871 0)
(0.990839 -0.00531644 0)
(0.989735 -0.00423302 0)
(0.988917 -0.00227651 0)
(0.987961 -0.000139438 0)
(0.997803 -0.00279718 0)
(0.997665 0.00136187 0)
(1.00332 0.00191013 0)
(1.00726 -0.00700786 0)
(0.998483 -0.0175365 0)
(0.988039 -0.0127233 0)
(0.988969 -0.00573165 0)
(0.99177 -0.00440515 0)
(0.991914 -0.0022155 0)
(0.994196 -0.00291862 0)
(0.998693 -0.00693602 0)
(0.996923 -0.00823676 0)
(0.994304 -0.00775978 0)
(0.992708 -0.00843357 0)
(0.992889 -0.00823954 0)
(0.991309 -0.0064906 0)
(0.991091 -0.00501905 0)
(0.990071 -0.00402153 0)
(0.989425 -0.0022476 0)
(0.98852 -0.000215548 0)
(0.997889 -0.00260363 0)
(0.997865 0.00108994 0)
(1.00306 0.00157844 0)
(1.00663 -0.0068638 0)
(0.998422 -0.0165538 0)
(0.988773 -0.0123919 0)
(0.989553 -0.00580425 0)
(0.992121 -0.004621 0)
(0.992106 -0.002663 0)
(0.993984 -0.00311885 0)
(0.998382 -0.00682331 0)
(0.996908 -0.00814414 0)
(0.994308 -0.00750372 0)
(0.992668 -0.00800947 0)
(0.993063 -0.00796561 0)
(0.991641 -0.00632322 0)
(0.991352 -0.00474234 0)
(0.990381 -0.00378803 0)
(0.989901 -0.00220834 0)
(0.989074 -0.00030807 0)
(0.997974 -0.00241406 0)
(0.998062 0.000822413 0)
(1.00281 0.00127065 0)
(1.00602 -0.00672779 0)
(0.998361 -0.0155981 0)
(0.989483 -0.0120516 0)
(0.990133 -0.00589935 0)
(0.992466 -0.00482565 0)
(0.992309 -0.00307934 0)
(0.993798 -0.00331254 0)
(0.998075 -0.00670434 0)
(0.996902 -0.00805418 0)
(0.994338 -0.00727856 0)
(0.992627 -0.0075807 0)
(0.993212 -0.00766577 0)
(0.991984 -0.00617738 0)
(0.991631 -0.00449835 0)
(0.990669 -0.00353914 0)
(0.990343 -0.0021491 0)
(0.989613 -0.000399331 0)
(0.998058 -0.00222713 0)
(0.998253 0.000561251 0)
(1.00257 0.00097957 0)
(1.00544 -0.00659865 0)
(0.998302 -0.0146776 0)
(0.990166 -0.0116931 0)
(0.990704 -0.0060027 0)
(0.992804 -0.00501915 0)
(0.992522 -0.0034679 0)
(0.993639 -0.0035033 0)
(0.99777 -0.00657942 0)
(0.9969 -0.0079645 0)
(0.994399 -0.00709234 0)
(0.992591 -0.00715425 0)
(0.993333 -0.00733222 0)
(0.99233 -0.00603773 0)
(0.991933 -0.00429565 0)
(0.990942 -0.00328891 0)
(0.990744 -0.00206615 0)
(0.990123 -0.000485131 0)
(0.998142 -0.00204634 0)
(0.99844 0.000311386 0)
(1.00234 0.000703846 0)
(1.00489 -0.00646926 0)
(0.998249 -0.0138041 0)
(0.990822 -0.0113056 0)
(0.991263 -0.00610228 0)
(0.993135 -0.00519252 0)
(0.992741 -0.00382051 0)
(0.993507 -0.00369041 0)
(0.997472 -0.00643825 0)
(0.9969 -0.00786511 0)
(0.994491 -0.00694461 0)
(0.992568 -0.00674488 0)
(0.993423 -0.0069651 0)
(0.992669 -0.00589764 0)
(0.992261 -0.00413714 0)
(0.991211 -0.00304773 0)
(0.991107 -0.00195731 0)
(0.990596 -0.000544201 0)
(0.998226 -0.0018712 0)
(0.998621 6.97718e-05 0)
(1.00212 0.000444706 0)
(1.00437 -0.00632881 0)
(0.998203 -0.0129833 0)
(0.991451 -0.0108972 0)
(0.991807 -0.00619624 0)
(0.99346 -0.00536122 0)
(0.992967 -0.0041472 0)
(0.993404 -0.00386579 0)
(0.99718 -0.00627868 0)
(0.996896 -0.00775321 0)
(0.994617 -0.00683164 0)
(0.992567 -0.00636382 0)
(0.993482 -0.00656925 0)
(0.992989 -0.00574697 0)
(0.992615 -0.00403043 0)
(0.991483 -0.00282423 0)
(0.991434 -0.00182903 0)
(0.991024 -0.000581894 0)
(0.998309 -0.00170584 0)
(0.998797 -0.000154189 0)
(1.00191 0.000185999 0)
(1.00387 -0.00616865 0)
(0.998164 -0.0122165 0)
(0.992052 -0.0104859 0)
(0.992335 -0.00626732 0)
(0.99378 -0.00553573 0)
(0.993201 -0.00444829 0)
(0.993333 -0.00402944 0)
(0.996895 -0.00611529 0)
(0.996884 -0.00762236 0)
(0.994776 -0.00674735 0)
(0.992599 -0.00602362 0)
(0.993514 -0.00615594 0)
(0.993276 -0.00557143 0)
(0.992993 -0.0039701 0)
(0.991775 -0.00263269 0)
(0.991729 -0.00168046 0)
(0.991408 -0.000603702 0)
(0.998392 -0.00155011 0)
(0.998966 -0.000358023 0)
(1.00172 -6.9093e-05 0)
(1.0034 -0.00597989 0)
(0.998133 -0.0115082 0)
(0.992627 -0.010083 0)
(0.992843 -0.00630436 0)
(0.994094 -0.00569365 0)
(0.993447 -0.00471905 0)
(0.993295 -0.00418337 0)
(0.996621 -0.00594345 0)
(0.996861 -0.00746327 0)
(0.994965 -0.00668432 0)
(0.992673 -0.00573664 0)
(0.993529 -0.00574096 0)
(0.993521 -0.00535882 0)
(0.993386 -0.00393917 0)
(0.992097 -0.00250562 0)
(0.991999 -0.00152355 0)
(0.991745 -0.000611891 0)
(0.998474 -0.00140377 0)
(0.999128 -0.000543103 0)
(1.00154 -0.000330064 0)
(1.00296 -0.00575877 0)
(0.998107 -0.0108429 0)
(0.993179 -0.00969543 0)
(0.993332 -0.00631348 0)
(0.9944 -0.00581968 0)
(0.993705 -0.00497552 0)
(0.993296 -0.00433249 0)
(0.996364 -0.00575551 0)
(0.99682 -0.00727156 0)
(0.995176 -0.00663126 0)
(0.992797 -0.00550941 0)
(0.993541 -0.00534784 0)
(0.993719 -0.00510928 0)
(0.993775 -0.00391511 0)
(0.99246 -0.00245784 0)
(0.992264 -0.00137392 0)
(0.99204 -0.000596161 0)
(0.998555 -0.00127367 0)
(0.999281 -0.000699836 0)
(1.00138 -0.000602626 0)
(1.00255 -0.00551439 0)
(0.998082 -0.0102102 0)
(0.993709 -0.00933721 0)
(0.993803 -0.00629616 0)
(0.994697 -0.00591548 0)
(0.993971 -0.00521073 0)
(0.993342 -0.00447526 0)
(0.99613 -0.00556428 0)
(0.996759 -0.00703666 0)
(0.995398 -0.00656168 0)
(0.992972 -0.00533445 0)
(0.993564 -0.00499877 0)
(0.993874 -0.00483286 0)
(0.994142 -0.00386787 0)
(0.992866 -0.00247212 0)
(0.992546 -0.00126426 0)
(0.992294 -0.000548874 0)
(0.998633 -0.00115696 0)
(0.999424 -0.000825696 0)
(1.00124 -0.000880435 0)
(1.00218 -0.00526721 0)
(0.998057 -0.00958767 0)
(0.994216 -0.00901576 0)
(0.994259 -0.00626137 0)
(0.994981 -0.00597159 0)
(0.994245 -0.00540636 0)
(0.993433 -0.00461772 0)
(0.995929 -0.00539097 0)
(0.996683 -0.00676656 0)
(0.995619 -0.00646751 0)
(0.993193 -0.00521291 0)
(0.993611 -0.00470411 0)
(0.993996 -0.00455858 0)
(0.994473 -0.00378518 0)
(0.993299 -0.00252257 0)
(0.992867 -0.00122949 0)
(0.99252 -0.00048154 0)
(0.99871 -0.00105529 0)
(0.999554 -0.000922043 0)
(1.00112 -0.00115423 0)
(1.00184 -0.00503407 0)
(0.998028 -0.00895663 0)
(0.994698 -0.0087137 0)
(0.994706 -0.00622828 0)
(0.995258 -0.00596689 0)
(0.99452 -0.00555061 0)
(0.993567 -0.00476285 0)
(0.995771 -0.0052474 0)
(0.996597 -0.00647821 0)
(0.995828 -0.00634385 0)
(0.993452 -0.00513396 0)
(0.993689 -0.0044598 0)
(0.994098 -0.00430374 0)
(0.994763 -0.00367764 0)
(0.993737 -0.00257719 0)
(0.993238 -0.00127051 0)
(0.992743 -0.000425477 0)
(0.998785 -0.000970176 0)
(0.99967 -0.000989589 0)
(1.00101 -0.00141133 0)
(1.00155 -0.00483033 0)
(0.997996 -0.00831759 0)
(0.995148 -0.0084133 0)
(0.995145 -0.00619856 0)
(0.995528 -0.00591162 0)
(0.994789 -0.00563199 0)
(0.993738 -0.00490275 0)
(0.995663 -0.00514215 0)
(0.996514 -0.0061965 0)
(0.996021 -0.0061885 0)
(0.993743 -0.00506958 0)
(0.993807 -0.0042604 0)
(0.99419 -0.00406383 0)
(0.995014 -0.00355883 0)
(0.994163 -0.00261589 0)
(0.993657 -0.00136664 0)
(0.992994 -0.000415805 0)
(0.998857 -0.000899428 0)
(0.999771 -0.00103349 0)
(1.00091 -0.00164598 0)
(1.0013 -0.00466699 0)
(0.997962 -0.00767526 0)
(0.995562 -0.00809244 0)
(0.995579 -0.00618523 0)
(0.995798 -0.00584593 0)
(0.995046 -0.00563979 0)
(0.993934 -0.00501734 0)
(0.995603 -0.00507555 0)
(0.996445 -0.0059373 0)
(0.996201 -0.00601025 0)
(0.99406 -0.00501111 0)
(0.993969 -0.00410507 0)
(0.994283 -0.00384061 0)
(0.995231 -0.0034245 0)
(0.994564 -0.0026313 0)
(0.994108 -0.0014863 0)
(0.993296 -0.00047042 0)
(0.998927 -0.000842426 0)
(0.999858 -0.00105813 0)
(1.00082 -0.00185062 0)
(1.0011 -0.00454922 0)
(0.997934 -0.00704964 0)
(0.995931 -0.00773439 0)
(0.996002 -0.00618915 0)
(0.996078 -0.00578091 0)
(0.995296 -0.00557183 0)
(0.994142 -0.00508354 0)
(0.99559 -0.00503654 0)
(0.996394 -0.00571186 0)
(0.996365 -0.00581087 0)
(0.994391 -0.00494443 0)
(0.994175 -0.00398679 0)
(0.994388 -0.00364779 0)
(0.995418 -0.00328381 0)
(0.99493 -0.00262278 0)
(0.994569 -0.00160774 0)
(0.993659 -0.000588821 0)
(0.998992 -0.000798307 0)
(0.99993 -0.00106446 0)
(1.00073 -0.00201513 0)
(1.00094 -0.00447661 0)
(0.997917 -0.00646052 0)
(0.996252 -0.00735109 0)
(0.996407 -0.00618868 0)
(0.996375 -0.00573496 0)
(0.99554 -0.00545245 0)
(0.994351 -0.00507626 0)
(0.99561 -0.00498836 0)
(0.996372 -0.00552294 0)
(0.996522 -0.0056129 0)
(0.994729 -0.0048664 0)
(0.994417 -0.00389478 0)
(0.994514 -0.00348352 0)
(0.995586 -0.00315013 0)
(0.995257 -0.00259126 0)
(0.995017 -0.00171083 0)
(0.994072 -0.000748934 0)
(0.999053 -0.000764039 0)
(0.999989 -0.00106604 0)
(1.00064 -0.0021385 0)
(1.00083 -0.00443171 0)
(0.997916 -0.00591779 0)
(0.996521 -0.00691592 0)
(0.996784 -0.00615214 0)
(0.996693 -0.00575884 0)
(0.995796 -0.0053463 0)
(0.99456 -0.00500353 0)
(0.995651 -0.00490988 0)
(0.996367 -0.00535087 0)
(0.99667 -0.00542034 0)
(0.995068 -0.00477327 0)
(0.994694 -0.00380328 0)
(0.994661 -0.00332666 0)
(0.995742 -0.00301772 0)
(0.995551 -0.00254417 0)
(0.995434 -0.001782 0)
(0.994513 -0.000921803 0)
(0.999111 -0.000732566 0)
(1.00003 -0.00106501 0)
(1.00054 -0.00222402 0)
(1.00076 -0.00442736 0)
(0.99794 -0.0054681 0)
(0.996746 -0.00642887 0)
(0.997108 -0.00602596 0)
(0.997019 -0.00579185 0)
(0.996078 -0.00523552 0)
(0.994778 -0.00488037 0)
(0.995706 -0.00480823 0)
(0.996383 -0.00520513 0)
(0.996819 -0.00525812 0)
(0.995408 -0.00470059 0)
(0.995001 -0.00374787 0)
(0.994828 -0.00320338 0)
(0.995884 -0.00289963 0)
(0.995812 -0.00250334 0)
(0.995811 -0.00183212 0)
(0.994956 -0.00108665 0)
(0.999165 -0.000711888 0)
(1.00007 -0.00107192 0)
(1.00042 -0.00223637 0)
(1.00071 -0.00440982 0)
(0.998003 -0.00510937 0)
(0.996946 -0.00597926 0)
(0.997384 -0.00586798 0)
(0.997345 -0.00583662 0)
(0.996385 -0.00515887 0)
(0.994996 -0.00470187 0)
(0.995757 -0.00461822 0)
(0.9964 -0.00500864 0)
(0.996958 -0.0050681 0)
(0.995744 -0.00460164 0)
(0.99534 -0.00369634 0)
(0.995033 -0.00309132 0)
(0.996025 -0.00277394 0)
(0.996054 -0.00245293 0)
(0.996156 -0.00185958 0)
(0.99538 -0.00121606 0)
(0.999211 -0.000670754 0)
(1.0001 -0.00110823 0)
(1.0003 -0.00223213 0)
(1.00067 -0.00438448 0)
(0.998087 -0.00478414 0)
(0.997113 -0.00550064 0)
(0.997599 -0.00561201 0)
(0.99766 -0.00585071 0)
(0.99674 -0.00519066 0)
(0.995256 -0.0045813 0)
(0.995817 -0.00443194 0)
(0.996415 -0.00483026 0)
(0.997084 -0.00490459 0)
(0.996064 -0.0045084 0)
(0.995693 -0.00366438 0)
(0.995266 -0.00301584 0)
(0.99616 -0.00265947 0)
(0.996267 -0.00239661 0)
(0.996471 -0.00188809 0)
(0.995768 -0.00131359 0)
(0.99925 -0.000660434 0)
(1.00012 -0.00109507 0)
(1.00017 -0.00215192 0)
(1.00066 -0.00435171 0)
(0.998217 -0.00455358 0)
(0.997273 -0.00508789 0)
(0.997747 -0.00528293 0)
(0.997914 -0.00576307 0)
(0.997097 -0.00522186 0)
(0.995548 -0.00449532 0)
(0.99588 -0.0042145 0)
(0.996418 -0.00460879 0)
(0.997199 -0.00472884 0)
(0.996374 -0.00440878 0)
(0.996062 -0.00363697 0)
(0.995541 -0.00297016 0)
(0.99631 -0.00255965 0)
(0.996452 -0.00232238 0)
(0.996759 -0.00191082 0)
(0.996121 -0.00138521 0)
(0.999285 -0.000603878 0)
(1.00016 -0.00120824 0)
(1.00003 -0.00208522 0)
(1.00064 -0.00431866 0)
(0.998369 -0.00435918 0)
(0.997448 -0.00467738 0)
(0.997867 -0.00490653 0)
(0.99813 -0.00558216 0)
(0.997466 -0.00524383 0)
(0.995896 -0.00449698 0)
(0.995979 -0.00402887 0)
(0.996403 -0.00436091 0)
(0.997277 -0.00452727 0)
(0.99665 -0.00430162 0)
(0.996422 -0.00360999 0)
(0.995837 -0.00294571 0)
(0.996476 -0.00249124 0)
(0.996606 -0.0022428 0)
(0.997007 -0.00191899 0)
(0.996438 -0.00145036 0)
(0.999307 -0.000555104 0)
(1.00018 -0.00128136 0)
(0.99991 -0.00197369 0)
(1.00063 -0.00421076 0)
(0.998568 -0.00424588 0)
(0.997629 -0.0043326 0)
(0.99793 -0.00453304 0)
(0.998259 -0.00532004 0)
(0.997781 -0.00518684 0)
(0.996277 -0.0045263 0)
(0.996135 -0.00387798 0)
(0.996407 -0.00409343 0)
(0.997338 -0.00428242 0)
(0.996907 -0.00416354 0)
(0.996788 -0.00357436 0)
(0.996169 -0.00292986 0)
(0.996683 -0.00244936 0)
(0.996762 -0.00216953 0)
(0.997226 -0.00190043 0)
(0.996731 -0.00150482 0)
(0.999332 -0.000514595 0)
(1.00023 -0.00131916 0)
(0.999784 -0.00185307 0)
(1.00057 -0.0039873 0)
(0.998763 -0.00412292 0)
(0.997845 -0.00408308 0)
(0.998002 -0.00418707 0)
(0.998362 -0.00505462 0)
(0.998062 -0.0051097 0)
(0.996676 -0.00461087 0)
(0.996346 -0.00384567 0)
(0.996417 -0.00388969 0)
(0.997352 -0.00405911 0)
(0.997095 -0.0040203 0)
(0.997112 -0.00354654 0)
(0.996497 -0.00293963 0)
(0.996904 -0.00243843 0)
(0.996912 -0.00212834 0)
(0.997401 -0.00187524 0)
(0.996981 -0.00155195 0)
(0.999345 -0.000442951 0)
(1.00026 -0.00138764 0)
(0.999693 -0.00174559 0)
(1.00054 -0.00377715 0)
(0.998969 -0.00404459 0)
(0.998075 -0.00399035 0)
(0.99804 -0.00391462 0)
(0.998381 -0.00475923 0)
(0.998252 -0.0049111 0)
(0.997052 -0.00459325 0)
(0.996619 -0.00380982 0)
(0.996485 -0.003673 0)
(0.997373 -0.00379471 0)
(0.997256 -0.00381716 0)
(0.997416 -0.00346074 0)
(0.996842 -0.00293692 0)
(0.997161 -0.00242937 0)
(0.997088 -0.00209947 0)
(0.997563 -0.00184515 0)
(0.997197 -0.00156989 0)
(0.999363 -0.000391357 0)
(1.00031 -0.00137411 0)
(0.999607 -0.00161712 0)