/*--------------------------------*- C++ -*----------------------------------*\
| =========                 |                                                 |
| \\      /  F ield         | OpenFOAM: The Open Source CFD Toolbox           |
|  \\    /   O peration     | Version:  v2012                                 |
|   \\  /    A nd           | Website:  www.openfoam.com                      |
|    \\/     M anipulation  |                                                 |
\*---------------------------------------------------------------------------*/
FoamFile
{
    version     2.0;
    format      ascii;
    class       volScalarField;
    location    "10.8";
    object      p;
}
// * * * * * * * * * * * * * * * * * * * * * * * * * * * * * * * * * * * * * //

dimensions      [0 2 -2 0 0 0 0];


internalField   nonuniform List<scalar> 
9600
(
-1.51019e-10
-0.00102665
-2.89789e-05
-0.00225218
-0.00100438
-0.00277812
-0.00101636
-0.00145363
-0.00161077
-0.000848374
0.00210987
-0.0027268
-0.00441021
-0.00523668
-0.00995544
-0.00904474
-0.0110291
-0.0103543
-0.0121463
-0.0119785
-1.21765e-05
-0.00102954
-2.53338e-05
-0.00225482
-0.000999806
-0.0027747
-0.00102517
-0.00145922
-0.00160592
-0.000877397
0.00211659
-0.00275044
-0.00437415
-0.00524801
-0.00991577
-0.00904867
-0.0109656
-0.0103583
-0.0121158
-0.0119864
-2.40169e-05
-0.00103263
-2.09573e-05
-0.00225763
-0.000991064
-0.00277239
-0.00104141
-0.00146508
-0.00160493
-0.000918355
0.00210317
-0.00278663
-0.00434077
-0.00527012
-0.00986006
-0.00904495
-0.0108861
-0.0103823
-0.0120946
-0.0119795
-3.63886e-05
-0.00103601
-1.81354e-05
-0.00226089
-0.000982973
-0.00277127
-0.00105832
-0.00147055
-0.00160315
-0.00097737
0.00206269
-0.00284161
-0.00431245
-0.00530336
-0.00978751
-0.00904261
-0.0108031
-0.0104287
-0.0120805
-0.0119782
-4.94177e-05
-0.00103995
-1.6681e-05
-0.00226488
-0.000975344
-0.00277043
-0.00107481
-0.00147556
-0.00159945
-0.00104975
0.00200369
-0.00290485
-0.00428471
-0.00534316
-0.00970325
-0.00904643
-0.0107419
-0.0104834
-0.0120703
-0.0119995
-6.30692e-05
-0.00104441
-1.66217e-05
-0.00226915
-0.000966473
-0.00276933
-0.00109083
-0.00148008
-0.00159293
-0.0011312
0.00193339
-0.00297054
-0.00425842
-0.00538496
-0.00961408
-0.00905602
-0.0106773
-0.0105316
-0.0120759
-0.0120367
-7.73385e-05
-0.00104938
-1.80312e-05
-0.0022728
-0.000955826
-0.00276779
-0.00110614
-0.00148416
-0.00158288
-0.00121792
0.00185599
-0.00303393
-0.00423401
-0.00542466
-0.00952432
-0.00906467
-0.0105999
-0.010573
-0.0121006
-0.012073
-9.22511e-05
-0.00105487
-2.08565e-05
-0.00227511
-0.000943607
-0.00276557
-0.00112057
-0.00148788
-0.00156932
-0.00130797
0.00177441
-0.00309254
-0.00421184
-0.00546061
-0.00943675
-0.00906687
-0.0105495
-0.0106095
-0.012134
-0.0121077
-0.000107852
-0.00106083
-2.50255e-05
-0.00227576
-0.000929892
-0.00276254
-0.0011342
-0.00149129
-0.00155288
-0.00140027
0.00169032
-0.00314502
-0.00419265
-0.0054917
-0.00935274
-0.00905991
-0.0105111
-0.0106372
-0.0121682
-0.0121537
-0.00012419
-0.00106717
-3.04751e-05
-0.00227493
-0.000914664
-0.0027587
-0.00114739
-0.00149434
-0.00153456
-0.00149411
0.00160442
-0.00319094
-0.00417765
-0.00551625
-0.00927396
-0.00904362
-0.0104821
-0.0106523
-0.0122033
-0.0122186
-0.000141303
-0.00107382
-3.70641e-05
-0.00227321
-0.00089815
-0.00275416
-0.00116082
-0.00149686
-0.00151557
-0.00158878
0.00151666
-0.0032307
-0.00416794
-0.0055328
-0.0092027
-0.00901719
-0.0104608
-0.010657
-0.0122379
-0.0123018
-0.000159226
-0.00108068
-4.45016e-05
-0.00227134
-0.000880906
-0.00274901
-0.00117533
-0.00149868
-0.00149728
-0.00168352
0.00142641
-0.00326521
-0.00416449
-0.00554057
-0.00914055
-0.00897946
-0.0104462
-0.0106563
-0.0122652
-0.0124008
-0.000177994
-0.00108769
-5.23704e-05
-0.00226984
-0.000863735
-0.0027432
-0.00119176
-0.00149961
-0.00148096
-0.0017776
0.00133258
-0.00329557
-0.00416846
-0.005539
-0.0090883
-0.00893079
-0.0104367
-0.0106544
-0.0122771
-0.0125142
-0.000197636
-0.00109476
-6.02443e-05
-0.00226889
-0.000847503
-0.00273662
-0.00121074
-0.00149952
-0.00146774
-0.00187037
0.00123384
-0.0033228
-0.00418091
-0.00552771
-0.00904665
-0.00887286
-0.0104283
-0.0106564
-0.0122677
-0.0126387
-0.000218181
-0.00110186
-6.78113e-05
-0.00226836
-0.000832938
-0.00272906
-0.00123266
-0.00149837
-0.00145854
-0.00196126
0.00112888
-0.00334742
-0.00420295
-0.00550644
-0.00901542
-0.00880814
-0.0104159
-0.0106687
-0.0122344
-0.0127676
-0.000239651
-0.00110895
-7.49326e-05
-0.00226802
-0.000820517
-0.0027202
-0.00125781
-0.00149612
-0.00145417
-0.00204975
0.00101658
-0.00336934
-0.00423568
-0.00547503
-0.00899339
-0.00873996
-0.0103939
-0.0106978
-0.0121783
-0.0128909
-0.000262072
-0.00111604
-8.16308e-05
-0.00226772
-0.00081049
-0.00270967
-0.0012864
-0.00149268
-0.00145533
-0.00213538
0.000895964
-0.00338804
-0.00427972
-0.00543385
-0.00897923
-0.00867264
-0.010356
-0.0107475
-0.0121036
-0.0129975
-0.000285464
-0.00112317
-8.804e-05
-0.0022674
-0.00080297
-0.00269709
-0.00131867
-0.00148789
-0.00146275
-0.00221765
0.000766089
-0.00340323
-0.00433509
-0.00538396
-0.00897029
-0.00861167
-0.0102975
-0.0108193
-0.0120168
-0.0130767
-0.000309831
-0.00113041
-9.43514e-05
-0.00226708
-0.000798004
-0.00268206
-0.00135491
-0.00148158
-0.00147705
-0.00229617
0.000626335
-0.00341492
-0.0044016
-0.00532667
-0.00896265
-0.00856318
-0.0102159
-0.0109104
-0.0119276
-0.0131193
-0.000335167
-0.00113783
-0.000100756
-0.00226678
-0.000795659
-0.00266424
-0.00139549
-0.00147365
-0.00149874
-0.00237083
0.000476533
-0.0034231
-0.00447887
-0.00526433
-0.00895198
-0.00853294
-0.0101104
-0.0110141
-0.0118466
-0.0131178
-0.000361447
-0.00114556
-0.000107421
-0.00226649
-0.000796098
-0.00264328
-0.00144078
-0.00146396
-0.00152826
-0.00244168
0.00031679
-0.00342798
-0.00456536
-0.00520064
-0.00893353
-0.00852507
-0.00998309
-0.0111208
-0.0117838
-0.013069
-0.000388625
-0.00115373
-0.000114488
-0.00226614
-0.000799583
-0.00261886
-0.00149112
-0.00145252
-0.00156589
-0.00250924
0.000147882
-0.00343039
-0.00465881
-0.00513893
-0.00890349
-0.00854158
-0.00983864
-0.0112212
-0.0117476
-0.012974
-0.000416643
-0.0011625
-0.000122079
-0.00226567
-0.000806463
-0.00259065
-0.00154688
-0.00143942
-0.00161151
-0.00257423
-2.89418e-05
-0.00343192
-0.00475712
-0.00508186
-0.00885881
-0.00858335
-0.00968322
-0.0113058
-0.0117435
-0.0128386
-0.000445422
-0.00117201
-0.000130311
-0.00226493
-0.000817171
-0.00255827
-0.00160833
-0.00142505
-0.00166465
-0.00263726
-0.00021642
-0.00343473
-0.0048585
-0.0050322
-0.00879679
-0.00864984
-0.00952488
-0.0113641
-0.0117732
-0.0126732
-0.000474864
-0.00118246
-0.000139306
-0.00226366
-0.000832204
-0.00252145
-0.00167554
-0.00140997
-0.00172462
-0.00269973
-0.00040364
-0.00344035
-0.00496153
-0.0049925
-0.00871617
-0.00873811
-0.00937199
-0.0113875
-0.0118354
-0.0124935
-0.000504853
-0.00119401
-0.000149202
-0.00226155
-0.000852156
-0.00247994
-0.00174847
-0.00139499
-0.00179023
-0.00276404
-0.000590085
-0.00344901
-0.00506534
-0.00496488
-0.00861671
-0.00884397
-0.00923313
-0.0113693
-0.0119257
-0.0123188
-0.000535248
-0.00120683
-0.000160203
-0.00225824
-0.000877657
-0.00243363
-0.00182676
-0.00138117
-0.00185994
-0.00283254
-0.000773861
-0.00346026
-0.00516914
-0.00495114
-0.00849852
-0.00896342
-0.00911531
-0.0113036
-0.0120341
-0.0121689
-0.00056591
-0.00122109
-0.000172579
-0.00225327
-0.000909309
-0.00238255
-0.00190971
-0.00136991
-0.00193181
-0.00290746
-0.00095351
-0.00347322
-0.00527251
-0.00495247
-0.00836235
-0.00909154
-0.00902967
-0.0111871
-0.0121449
-0.0120637
-0.000596697
-0.00123697
-0.000186665
-0.00224613
-0.000947686
-0.00232686
-0.00199647
-0.00136309
-0.00200319
-0.00299059
-0.00112823
-0.00348647
-0.00537585
-0.00497001
-0.00820918
-0.0092214
-0.00898171
-0.0110224
-0.012239
-0.0120188
-0.000627444
-0.00125458
-0.00020291
-0.00223626
-0.000993249
-0.00226686
-0.00208588
-0.00136298
-0.00207135
-0.00308274
-0.00129866
-0.00349777
-0.00547939
-0.0050061
-0.00804
-0.0093444
-0.00897789
-0.0108206
-0.0122952
-0.012038
-0.000658001
-0.00127393
-0.000221856
-0.00222323
-0.00104632
-0.00220314
-0.00217637
-0.00137165
-0.00213396
-0.0031842
-0.00146654
-0.00350435
-0.00558236
-0.00506347
-0.00785734
-0.00945138
-0.0090213
-0.0105999
-0.0122925
-0.0121093
-0.000688256
-0.00129496
-0.000244129
-0.0022067
-0.00110701
-0.00213652
-0.00226595
-0.00139135
-0.00218924
-0.00329424
-0.00163446
-0.00350401
-0.00568289
-0.00514456
-0.00766566
-0.00953298
-0.00910939
-0.0103792
-0.0122153
-0.0122073
-0.000718084
-0.00131759
-0.000270481
-0.00218634
-0.00117511
-0.0020682
-0.00235227
-0.00142453
-0.00223626
-0.00341074
-0.0018057
-0.00349533
-0.00577873
-0.00525221
-0.00746977
-0.0095788
-0.00923507
-0.0101797
-0.01206
-0.0123008
-0.00074738
-0.00134165
-0.000301666
-0.0021619
-0.00125017
-0.00199988
-0.00243291
-0.00147304
-0.00227505
-0.00353075
-0.00198396
-0.00347851
-0.00586574
-0.00538807
-0.00727712
-0.00957915
-0.00938499
-0.0100232
-0.0118392
-0.0123565
-0.000776118
-0.00136689
-0.000338307
-0.00213336
-0.00133156
-0.00193342
-0.0025053
-0.00153823
-0.00230653
-0.00365082
-0.00217287
-0.00345556
-0.00593801
-0.00555095
-0.00709821
-0.009529
-0.00954517
-0.00992484
-0.0115775
-0.0123423
-0.000804318
-0.00139305
-0.000380911
-0.0021009
-0.00141835
-0.00187091
-0.00256714
-0.00162051
-0.00233261
-0.00376706
-0.00237509
-0.00343017
-0.00598965
-0.00573751
-0.00694398
-0.00942943
-0.00970761
-0.0098888
-0.0113006
-0.01224
-0.000831983
-0.00141991
-0.000429878
-0.00206481
-0.00150944
-0.00181478
-0.00261646
-0.00171898
-0.00235634
-0.0038753
-0.00259144
-0.003408
-0.00601523
-0.00594199
-0.00682591
-0.00928541
-0.00993696
-0.00990922
-0.011037
-0.0120545
-0.000859209
-0.00144721
-0.000485421
-0.00202557
-0.00160348
-0.00176751
-0.00265165
-0.00183233
-0.00238148
-0.00397136
-0.00282093
-0.00339591
-0.00601058
-0.00615615
-0.00675408
-0.00910016
-0.0100349
-0.00996897
-0.0108106
-0.0118109
-0.00088611
-0.00147473
-0.000547636
-0.00198369
-0.00169888
-0.00173155
-0.002672
-0.00195822
-0.00241219
-0.00405211
-0.00306086
-0.00340137
-0.00597462
-0.00636941
-0.00673414
-0.00888645
-0.0100654
-0.0100513
-0.0106345
-0.0115395
-0.000912699
-0.00150228
-0.000616567
-0.00193974
-0.00179403
-0.00170954
-0.00267754
-0.00209314
-0.00245275
-0.00411587
-0.00330682
-0.00343165
-0.00591023
-0.00656975
-0.00676608
-0.0086618
-0.0100386
-0.0101404
-0.0105097
-0.0112658
-0.000939145
-0.00152961
-0.000691997
-0.00189478
-0.00188712
-0.00170349
-0.00266916
-0.00223276
-0.00250684
-0.00416302
-0.00355305
-0.00349203
-0.00582331
-0.00674491
-0.00684456
-0.00844689
-0.0099675
-0.0102189
-0.0104309
-0.0110086
-0.000965774
-0.00155632
-0.000773621
-0.00185015
-0.00197558
-0.00171482
-0.00264954
-0.00237137
-0.00257669
-0.00419648
-0.00379344
-0.00358536
-0.005723
-0.00688297
-0.00696035
-0.00825979
-0.00982169
-0.0102659
-0.0103906
-0.0107819
-0.000992967
-0.00158172
-0.000861066
-0.00180742
-0.00205725
-0.00174464
-0.00262273
-0.00250371
-0.00266272
-0.00421929
-0.00402321
-0.00371254
-0.00561992
-0.00697614
-0.00710083
-0.00810618
-0.0096302
-0.0102656
-0.0103753
-0.0105961
-0.00102137
-0.00160492
-0.000953544
-0.00176889
-0.00212938
-0.00179271
-0.0025938
-0.00262598
-0.002764
-0.00423516
-0.00423765
-0.00387156
-0.00552439
-0.00702113
-0.00724851
-0.00800673
-0.00941837
-0.010211
-0.0103655
-0.0104552
-0.00105174
-0.00162526
-0.00105
-0.00173719
-0.00218804
-0.00185734
-0.00256886
-0.00273547
-0.00287771
-0.00424944
-0.00443225
-0.00405689
-0.00544617
-0.00701896
-0.007385
-0.00795754
-0.00921056
-0.0101077
-0.0103432
-0.0103517
-0.00108455
-0.00164244
-0.00114897
-0.00171497
-0.00223165
-0.00193481
-0.00255296
-0.00283188
-0.00300001
-0.00426623
-0.00460491
-0.00425887
-0.005393
-0.00697616
-0.00749618
-0.00794757
-0.00902365
-0.00996835
-0.0102967
-0.0102695
-0.00112016
-0.00165661
-0.0012482
-0.00170477
-0.00225873
-0.0020196
-0.00254887
-0.00291731
-0.00312763
-0.0042882
-0.00475413
-0.00446725
-0.0053694
-0.00690359
-0.00757269
-0.00796526
-0.0088667
-0.0098065
-0.0102223
-0.0101945
-0.00115868
-0.00166846
-0.00134513
-0.00170847
-0.00225676
-0.00210692
-0.00255776
-0.00299372
-0.00325788
-0.00431805
-0.00487853
-0.00467278
-0.00537653
-0.00681445
-0.00761051
-0.00799748
-0.00874271
-0.00963277
-0.0101192
-0.0101192
-0.00119987
-0.00167913
-0.00143784
-0.00172722
-0.00227565
-0.00219421
-0.00257882
-0.00306253
-0.00338804
-0.00435641
-0.0049797
-0.00486766
-0.00541225
-0.00672213
-0.007611
-0.00802908
-0.00865039
-0.00945867
-0.00998767
-0.0100366
-0.0012433
-0.00168996
-0.00152503
-0.0017595
-0.00229967
-0.0022806
-0.00261012
-0.00312477
-0.00351468
-0.00440324
-0.00506099
-0.00504576
-0.00547103
-0.00663771
-0.00757925
-0.00804706
-0.00858249
-0.00929765
-0.00983447
-0.00993775
-0.0012885
-0.00170228
-0.00160609
-0.00180223
-0.00233065
-0.00236685
-0.00265027
-0.00318163
-0.00363496
-0.00445957
-0.00512597
-0.00520177
-0.0055471
-0.00656742
-0.00752115
-0.00804622
-0.00852803
-0.00915655
-0.00967197
-0.00981479
-0.00133473
-0.00171737
-0.00167997
-0.00185308
-0.00236884
-0.00245551
-0.00269897
-0.00323364
-0.00374587
-0.00452258
-0.00517902
-0.00533341
-0.00563176
-0.0065159
-0.00745328
-0.00802782
-0.00847987
-0.00903364
-0.00951229
-0.00967039
-0.00138191
-0.00173488
-0.00176494
-0.00190835
-0.00241508
-0.00254961
-0.00275868
-0.00328188
-0.00384466
-0.00458866
-0.00522526
-0.00544215
-0.00571519
-0.00648067
-0.00737919
-0.00799437
-0.0084356
-0.00892391
-0.00936106
-0.00951627
-0.00142994
-0.00175541
-0.00180795
-0.00196308
-0.00246348
-0.00264844
-0.00283005
-0.0033267
-0.00392845
-0.00465444
-0.00526932
-0.00551867
-0.00578828
-0.00645457
-0.00730036
-0.00794546
-0.00839276
-0.00882472
-0.00921717
-0.00936314
-0.00147423
-0.00179313
-0.0018927
-0.00202574
-0.00251697
-0.00275468
-0.00291752
-0.00337099
-0.00399322
-0.00471428
-0.00531473
-0.00559442
-0.00585116
-0.00643283
-0.00722008
-0.00787998
-0.0083448
-0.0087387
-0.00908263
-0.00921567
-0.00152277
-0.0017838
-0.00194603
-0.00208794
-0.00257099
-0.00286646
-0.00302515
-0.00342186
-0.00403944
-0.00476287
-0.00536095
-0.00566209
-0.00590512
-0.00641374
-0.00713905
-0.00779858
-0.00828563
-0.00866374
-0.00896024
-0.00907238
-0.00157639
-0.00188912
-0.0020127
-0.00213404
-0.00260762
-0.00297667
-0.00314805
-0.00347877
-0.00406833
-0.00479451
-0.00540272
-0.00572577
-0.00595686
-0.00639699
-0.00705643
-0.00770454
-0.00821152
-0.00859163
-0.00885153
-0.00893325
-0.0016119
-0.00185033
-0.00208793
-0.00223728
-0.00268116
-0.00308838
-0.00327768
-0.00354032
-0.00407989
-0.00480408
-0.00543265
-0.00578469
-0.00600962
-0.00638604
-0.00697544
-0.00760158
-0.0081191
-0.00851136
-0.00875493
-0.00880388
-0.00166581
-0.00191629
-0.0021497
-0.00231096
-0.00273376
-0.00317815
-0.00340825
-0.00362301
-0.00409194
-0.00479471
-0.00544582
-0.00583527
-0.00606329
-0.0063849
-0.00690053
-0.00749298
-0.00801085
-0.0084152
-0.00866228
-0.00868771
-0.00170801
-0.00192653
-0.00223257
-0.00241611
-0.00279016
-0.00325057
-0.0035375
-0.00372891
-0.00411668
-0.00476995
-0.00543618
-0.00586959
-0.00611425
-0.00639424
-0.00683675
-0.00738365
-0.00789234
-0.00830012
-0.0085609
-0.00858132
-0.00175856
-0.00198186
-0.00230845
-0.00251553
-0.00285381
-0.00331035
-0.00365229
-0.0038479
-0.0041586
-0.00473696
-0.00540256
-0.00588097
-0.00615586
-0.0064123
-0.00678879
-0.00727864
-0.00776938
-0.00817168
-0.00844077
-0.00847462
-0.00182074
-0.0020119
-0.00236002
-0.00260779
-0.00292705
-0.0033667
-0.00375167
-0.00397347
-0.00422268
-0.00471045
-0.00534866
-0.00586597
-0.00618002
-0.00643092
-0.00675646
-0.00718454
-0.00764567
-0.00803726
-0.00830384
-0.00835738
-0.00188901
-0.00208569
-0.00241583
-0.00268622
-0.00300704
-0.00341855
-0.00382887
-0.00409048
-0.00430631
-0.00470218
-0.00528461
-0.00582449
-0.00618323
-0.00644252
-0.00673559
-0.00710665
-0.00752428
-0.00790344
-0.00816078
-0.0082241
-0.00194744
-0.00211612
-0.00248797
-0.0028028
-0.00310032
-0.00346766
-0.00388105
-0.00418398
-0.00439588
-0.00471437
-0.00522086
-0.0057565
-0.00615924
-0.00644051
-0.00671579
-0.00704239
-0.0074095
-0.00776938
-0.0080179
-0.00807884
-0.00201457
-0.00218954
-0.00255872
-0.00289646
-0.00319335
-0.00352113
-0.00391941
-0.00425538
-0.00448237
-0.00474563
-0.00517162
-0.00567319
-0.00610639
-0.00642133
-0.00669055
-0.00698739
-0.00730854
-0.00763574
-0.00787557
-0.00792842
-0.00209081
-0.00225323
-0.00262017
-0.00297867
-0.00328837
-0.00358772
-0.00395918
-0.00430881
-0.00455672
-0.00478815
-0.00513821
-0.0055872
-0.00602717
-0.00637627
-0.00665418
-0.0069332
-0.00722101
-0.00750835
-0.00773327
-0.00777904
-0.00217046
-0.00233373
-0.00268773
-0.00305559
-0.00338198
-0.00366165
-0.00399915
-0.00434411
-0.00461053
-0.00483161
-0.00511913
-0.00550673
-0.00593023
-0.00630203
-0.00659861
-0.00686963
-0.00713611
-0.00738829
-0.00759087
-0.00763276
-0.00225116
-0.00240828
-0.00276557
-0.00313782
-0.00347298
-0.00373846
-0.00404062
-0.00436799
-0.00464396
-0.0048658
-0.00511014
-0.00543521
-0.0058249
-0.00620234
-0.00651788
-0.00679045
-0.0070434
-0.00727121
-0.0074488
-0.0074859
-0.00233874
-0.00249224
-0.00284565
-0.00321503
-0.00355633
-0.00381616
-0.00408893
-0.0043897
-0.00466189
-0.00488483
-0.00510288
-0.00537226
-0.00571754
-0.00608468
-0.00640982
-0.00668841
-0.00693478
-0.00714809
-0.0073037
-0.00732974
-0.00243573
-0.00259211
-0.00293021
-0.00328696
-0.00363013
-0.00388932
-0.00414062
-0.00441378
-0.00467099
-0.00488694
-0.00508423
-0.00531001
-0.00560681
-0.00595286
-0.00627734
-0.00656146
-0.00680888
-0.00701528
-0.0071557
-0.00716691
-0.00253354
-0.00268003
-0.00302123
-0.00337417
-0.00370984
-0.00396256
-0.00419124
-0.00443603
-0.00467861
-0.00488305
-0.00505627
-0.00524038
-0.0054826
-0.00579137
-0.0061061
-0.00639708
-0.00665865
-0.00687235
-0.00701069
-0.0070143
-0.00263954
-0.0027825
-0.00311961
-0.00346259
-0.00378608
-0.00403482
-0.00424227
-0.00445154
-0.00467356
-0.0048741
-0.00503323
-0.00518068
-0.0053615
-0.00560769
-0.00587669
-0.00613903
-0.00639449
-0.00662501
-0.00679629
-0.00684255
-0.00275629
-0.00289683
-0.00322259
-0.00354697
-0.00385271
-0.0040983
-0.00430388
-0.00448745
-0.00466885
-0.00484202
-0.0049929
-0.00512572
-0.00526985
-0.00547052
-0.00570113
-0.00591712
-0.0061108
-0.00626642
-0.00637837
-0.00640529
-0.00287915
-0.00301551
-0.003333
-0.00364251
-0.00392535
-0.0041534
-0.00435635
-0.00454257
-0.00469821
-0.00480053
-0.00487163
-0.00493252
-0.00499859
-0.00513006
-0.00533005
-0.00556961
-0.0058375
-0.00609153
-0.00627941
-0.00635784
-0.00301044
-0.00314597
-0.00345534
-0.00374484
-0.0039992
-0.00419712
-0.00438873
-0.00462204
-0.00488008
-0.00504732
-0.00505811
-0.00498858
-0.00492233
-0.00492854
-0.00495053
-0.00490185
-0.00477396
-0.00459921
-0.00443291
-0.00432401
-0.00315264
-0.00328277
-0.00357658
-0.00384751
-0.00407552
-0.00421869
-0.00433997
-0.00447137
-0.00460032
-0.00469908
-0.00476425
-0.00481852
-0.00484159
-0.00485898
-0.00491909
-0.00497335
-0.0049729
-0.00490456
-0.00478811
-0.00470162
-0.00336247
-0.00350373
-0.00369966
-0.00384907
-0.00398908
-0.0041205
-0.00426788
-0.00444713
-0.00464737
-0.00482778
-0.00494014
-0.00496902
-0.00493268
-0.00482233
-0.00466163
-0.0044588
-0.00421994
-0.00400877
-0.00383998
-0.00377414
-0.00339839
-0.003465
-0.00368575
-0.00386846
-0.00401417
-0.00414022
-0.0042754
-0.00442779
-0.00456878
-0.00462491
-0.00464328
-0.00466399
-0.00470297
-0.00479046
-0.00493299
-0.00513685
-0.00536705
-0.00561018
-0.00587078
-0.00608758
-0.00359086
-0.00370111
-0.003838
-0.00390894
-0.00398066
-0.00406644
-0.00419979
-0.00437984
-0.00457801
-0.00472709
-0.00480615
-0.00484269
-0.00482283
-0.00473588
-0.0045801
-0.00439417
-0.00419504
-0.00399173
-0.00383277
-0.00379137
-0.00367602
-0.00376229
-0.00387109
-0.00389681
-0.00392738
-0.0040099
-0.0041706
-0.00438505
-0.00458355
-0.00468804
-0.00469375
-0.00468578
-0.00470364
-0.00472088
-0.00474766
-0.0047861
-0.00479869
-0.00477067
-0.00473268
-0.00476537
-0.0119221
-0.0133637
-0.0174621
-0.0212122
-0.0214265
-0.019548
-0.0174257
-0.0154926
-0.0138303
-0.0125148
-0.0115556
-0.0109514
-0.0105614
-0.0100408
-0.00925048
-0.00843459
-0.00782782
-0.00740462
-0.00703442
-0.00662498
-0.00616699
-0.00574216
-0.00545548
-0.00532537
-0.00523698
-0.00503649
-0.00469867
-0.00428509
-0.00382745
-0.0033729
-0.00296432
-0.00257882
-0.00218411
-0.00180551
-0.00146858
-0.00114748
-0.000799149
-0.000485452
-0.000233423
9.37138e-05
0.000560275
0.00105019
0.00152188
0.00201138
0.0024972
0.00293557
0.0033638
0.00380819
0.00426396
0.00472744
0.00520113
0.00568156
0.00617304
0.00667219
0.00717942
0.00766743
0.00815037
0.00869566
0.00927077
0.00985803
0.0104725
0.0111119
0.0117096
0.0122872
0.0128934
0.0135339
0.0141671
0.0148269
0.0154943
0.0161648
0.0168627
0.0175801
0.0183375
0.0190932
0.0198151
0.0205242
0.0212657
0.0220741
0.0228818
0.023715
0.0245466
0.0253929
0.0262429
0.0271083
0.027993
0.028885
0.0298166
0.0307261
0.0316831
0.0326493
0.0336659
0.0346715
0.0357282
0.0367639
0.037875
0.0390131
0.0401558
0.0414102
0.0423925
0.0435577
-0.0119443
-0.0134051
-0.0173447
-0.0210568
-0.0213474
-0.0195136
-0.0174052
-0.0154789
-0.0138204
-0.0125069
-0.0115482
-0.0109443
-0.0105555
-0.0100362
-0.00924638
-0.00843036
-0.0078235
-0.00740048
-0.00703061
-0.00662154
-0.00616375
-0.00573895
-0.00545232
-0.00532249
-0.00523457
-0.00503447
-0.0046968
-0.0042833
-0.00382575
-0.00337128
-0.00296284
-0.00257752
-0.00218291
-0.00180436
-0.00146751
-0.00114652
-0.000798255
-0.000484554
-0.000232648
9.43149e-05
0.000560856
0.0010508
0.00152244
0.00201191
0.00249773
0.00293609
0.00336427
0.00380864
0.00426439
0.00472785
0.00520153
0.00568195
0.00617341
0.00667255
0.00717977
0.00766779
0.00815069
0.00869595
0.00927106
0.00985831
0.0104727
0.0111122
0.0117099
0.0122874
0.0128937
0.0135342
0.0141673
0.0148271
0.0154945
0.016165
0.0168629
0.0175803
0.0183377
0.0190934
0.0198153
0.0205243
0.0212659
0.0220743
0.0228819
0.0237152
0.0245468
0.025393
0.026243
0.0271085
0.0279931
0.0288851
0.0298167
0.0307262
0.0316832
0.0326494
0.0336659
0.0346716
0.0357283
0.036764
0.0378751
0.0390132
0.0401558
0.0414103
0.0423927
0.0435578
-0.0120847
-0.0135601
-0.0171794
-0.0207708
-0.0211997
-0.0194604
-0.0173766
-0.0154572
-0.0138042
-0.012496
-0.0115409
-0.0109381
-0.0105494
-0.0100305
-0.00924158
-0.00842654
-0.00782028
-0.00739732
-0.00702734
-0.00661835
-0.00616074
-0.00573603
-0.00544946
-0.00531986
-0.00523242
-0.00503271
-0.00469522
-0.00428175
-0.00382417
-0.00336971
-0.00296142
-0.00257629
-0.00218178
-0.00180329
-0.00146651
-0.00114563
-0.000797407
-0.000483728
-0.000232014
9.47705e-05
0.000561356
0.00105136
0.00152295
0.0020124
0.00249823
0.00293655
0.00336468
0.00380903
0.00426477
0.00472821
0.00520188
0.00568228
0.00617374
0.00667287
0.00718009
0.00766811
0.00815096
0.0086962
0.00927131
0.00985855
0.010473
0.0111125
0.0117101
0.0122876
0.0128939
0.0135344
0.0141675
0.0148273
0.0154947
0.0161652
0.0168631
0.0175805
0.0183379
0.0190936
0.0198154
0.0205245
0.021266
0.0220744
0.0228821
0.0237153
0.0245469
0.0253931
0.0262431
0.0271086
0.0279932
0.0288852
0.0298168
0.0307263
0.0316833
0.0326494
0.033666
0.0346717
0.0357284
0.036764
0.0378752
0.0390133
0.0401559
0.0414104
0.0423928
0.0435579
-0.012269
-0.0137304
-0.0169641
-0.0203814
-0.0209747
-0.0193737
-0.0173296
-0.0154215
-0.0137776
-0.0124791
-0.0115316
-0.0109314
-0.0105413
-0.0100215
-0.00923453
-0.00842261
-0.00781813
-0.00739497
-0.00702409
-0.00661481
-0.00615763
-0.00573332
-0.0054467
-0.00531693
-0.00522975
-0.00503058
-0.00469348
-0.00428008
-0.00382234
-0.00336779
-0.00295967
-0.0025748
-0.00218046
-0.00180204
-0.00146532
-0.00114455
-0.000796405
-0.000482805
-0.000231334
9.52604e-05
0.000561904
0.00105197
0.00152352
0.00201295
0.00249879
0.00293704
0.00336511
0.00380944
0.00426515
0.00472858
0.00520223
0.00568263
0.00617408
0.00667319
0.00718042
0.00766843
0.00815121
0.00869644
0.00927156
0.00985878
0.0104732
0.0111128
0.0117104
0.0122879
0.0128941
0.0135346
0.0141677
0.0148275
0.0154949
0.0161654
0.0168633
0.0175806
0.018338
0.0190938
0.0198156
0.0205246
0.0212661
0.0220746
0.0228822
0.0237154
0.024547
0.0253932
0.0262433
0.0271087
0.0279933
0.0288853
0.0298169
0.0307264
0.0316834
0.0326495
0.0336661
0.0346718
0.0357285
0.0367641
0.0378752
0.0390134
0.0401559
0.0414105
0.0423931
0.043558
-0.0124477
-0.0138687
-0.0167124
-0.0199474
-0.0207091
-0.0192678
-0.0172722
-0.0153761
-0.0137421
-0.0124557
-0.0115193
-0.0109231
-0.0105301
-0.0100079
-0.00922413
-0.00841819
-0.00781721
-0.00739357
-0.00702055
-0.00661044
-0.00615432
-0.00573126
-0.00544453
-0.00531374
-0.00522614
-0.00502756
-0.00469122
-0.00427803
-0.00382002
-0.00336527
-0.0029573
-0.00257282
-0.00217877
-0.00180041
-0.00146365
-0.00114301
-0.000795067
-0.00048165
-0.000230431
9.59568e-05
0.000562602
0.00105271
0.00152424
0.00201365
0.00249944
0.0029376
0.00336562
0.00380992
0.0042656
0.00472899
0.00520264
0.00568302
0.00617446
0.00667356
0.00718077
0.00766878
0.0081515
0.00869671
0.00927183
0.00985904
0.0104735
0.0111131
0.0117107
0.0122881
0.0128943
0.0135349
0.014168
0.0148277
0.0154952
0.0161656
0.0168635
0.0175808
0.0183382
0.019094
0.0198158
0.0205248
0.0212663
0.0220747
0.0228824
0.0237156
0.0245472
0.0253933
0.0262434
0.0271088
0.0279934
0.0288854
0.029817
0.0307265
0.0316834
0.0326496
0.0336662
0.0346719
0.0357285
0.0367642
0.0378753
0.0390134
0.040156
0.0414107
0.0423933
0.0435583
-0.0125917
-0.0139787
-0.0164634
-0.0195016
-0.0204199
-0.0191517
-0.0172115
-0.0153263
-0.0137012
-0.0124279
-0.0115043
-0.0109127
-0.0105153
-0.00998968
-0.00921064
-0.00841339
-0.00781752
-0.00739305
-0.0070165
-0.00660481
-0.00615054
-0.00573011
-0.00544359
-0.00531078
-0.00522175
-0.00502359
-0.00468828
-0.00427537
-0.003817
-0.0033619
-0.00295408
-0.00257022
-0.00217671
-0.00179834
-0.00146128
-0.00114071
-0.000793197
-0.000480098
-0.000229092
9.70449e-05
0.000563539
0.00105365
0.0015252
0.00201455
0.00250022
0.00293827
0.00336625
0.00381052
0.00426611
0.00472947
0.00520311
0.00568349
0.00617492
0.00667397
0.00718115
0.00766916
0.00815183
0.00869701
0.00927213
0.00985932
0.0104738
0.0111134
0.011711
0.0122884
0.0128945
0.0135351
0.0141682
0.0148279
0.0154954
0.0161658
0.0168637
0.017581
0.0183384
0.0190942
0.019816
0.0205249
0.0212664
0.0220749
0.0228825
0.0237157
0.0245473
0.0253935
0.0262435
0.0271089
0.0279935
0.0288855
0.0298171
0.0307266
0.0316835
0.0326497
0.0336663
0.034672
0.0357286
0.0367643
0.0378753
0.0390135
0.040156
0.0414108
0.0423937
0.0435587
-0.0126985
-0.0140875
-0.016241
-0.0190489
-0.0201044
-0.0190234
-0.0171481
-0.0152737
-0.0136566
-0.0123971
-0.0114873
-0.0109004
-0.0104977
-0.00996821
-0.0091949
-0.00840831
-0.0078188
-0.00739324
-0.00701188
-0.0065978
-0.00614598
-0.00572959
-0.00544403
-0.00530862
-0.00521722
-0.00501915
-0.00468489
-0.00427208
-0.00381308
-0.00335742
-0.00294969
-0.0025668
-0.00217432
-0.00179595
-0.00145819
-0.00113754
-0.000790662
-0.000477964
-0.000227028
9.87756e-05
0.000564836
0.00105486
0.00152648
0.00201573
0.00250116
0.0029391
0.00336706
0.00381127
0.00426674
0.00473003
0.00520368
0.0056841
0.00617551
0.00667446
0.00718159
0.00766961
0.00815223
0.00869736
0.00927244
0.00985965
0.0104741
0.0111138
0.0117113
0.0122886
0.0128948
0.0135353
0.0141684
0.0148282
0.0154957
0.0161661
0.0168639
0.0175812
0.0183387
0.0190945
0.0198163
0.0205251
0.0212665
0.022075
0.0228827
0.0237159
0.0245475
0.0253936
0.0262437
0.027109
0.0279937
0.0288856
0.0298173
0.0307267
0.0316836
0.0326498
0.0336664
0.0346721
0.0357287
0.0367643
0.0378754
0.0390136
0.040156
0.041411
0.0423942
0.0435593
-0.0127845
-0.0142061
-0.0160421
-0.0185815
-0.0197563
-0.0188807
-0.0170831
-0.01522
-0.0136094
-0.0123634
-0.0114682
-0.0108867
-0.0104786
-0.00994468
-0.00917757
-0.00840282
-0.00782054
-0.00739384
-0.00700688
-0.00658973
-0.00614059
-0.0057293
-0.00544557
-0.00530753
-0.00521328
-0.00501503
-0.00468161
-0.00426843
-0.00380831
-0.0033517
-0.0029439
-0.00256231
-0.00217148
-0.00179335
-0.00145457
-0.00113364
-0.000787585
-0.000475238
-0.000224025
0.000101422
0.000566675
0.00105645
0.00152818
0.00201721
0.00250229
0.00294011
0.00336812
0.00381224
0.00426752
0.0047307
0.00520437
0.00568488
0.00617629
0.00667511
0.00718213
0.00767017
0.00815275
0.00869777
0.00927279
0.00986003
0.0104746
0.0111142
0.0117117
0.012289
0.0128951
0.0135356
0.0141687
0.0148284
0.0154959
0.0161663
0.0168641
0.0175814
0.0183389
0.0190948
0.0198165
0.0205253
0.0212667
0.0220753
0.0228829
0.0237161
0.0245477
0.0253938
0.0262439
0.0271092
0.0279938
0.0288857
0.0298174
0.0307268
0.0316838
0.0326499
0.0336665
0.0346722
0.0357288
0.0367644
0.0378755
0.0390138
0.040156
0.0414111
0.0423948
0.0435601
-0.0128564
-0.014319
-0.0158565
-0.018101
-0.019378
-0.0187245
-0.0170182
-0.0151668
-0.01356
-0.0123266
-0.0114467
-0.0108716
-0.0104583
-0.00991974
-0.00915886
-0.00839662
-0.00782228
-0.00739461
-0.00700171
-0.00658109
-0.00613468
-0.00572912
-0.00544794
-0.00530756
-0.00521041
-0.00501188
-0.00467904
-0.00426489
-0.003803
-0.00334492
-0.00293673
-0.00255658
-0.00216796
-0.00179046
-0.00145062
-0.00112937
-0.00078434
-0.000472201
-0.000220159
0.000105097
0.000569238
0.00105859
0.00153039
0.00201904
0.00250356
0.0029413
0.00336945
0.00381349
0.00426851
0.0047315
0.00520519
0.00568584
0.0061773
0.00667596
0.00718284
0.00767091
0.00815345
0.00869826
0.00927316
0.00986047
0.0104751
0.0111146
0.0117121
0.0122894
0.0128954
0.0135359
0.014169
0.0148287
0.0154962
0.0161665
0.0168644
0.0175817
0.0183392
0.0190952
0.0198168
0.0205256
0.0212669
0.0220755
0.0228832
0.0237164
0.024548
0.0253941
0.0262441
0.0271094
0.027994
0.0288859
0.0298176
0.0307269
0.0316839
0.03265
0.0336667
0.0346723
0.0357289
0.0367645
0.0378755
0.0390139
0.040156
0.0414112
0.0423955
0.0435612
-0.0129071
-0.0144101
-0.0156863
-0.01762
-0.018974
-0.0185537
-0.0169529
-0.015114
-0.013508
-0.0122863
-0.0114226
-0.0108552
-0.0104371
-0.00989355
-0.00913873
-0.00838952
-0.0078238
-0.00739551
-0.00699652
-0.0065722
-0.00612859
-0.00572922
-0.0054512
-0.00530881
-0.0052088
-0.00500996
-0.00467749
-0.00426182
-0.00379752
-0.00333745
-0.00292853
-0.00254976
-0.00216361
-0.00178708
-0.00144636
-0.001125
-0.000781295