/*--------------------------------*- C++ -*----------------------------------*\
| =========                 |                                                 |
| \\      /  F ield         | OpenFOAM: The Open Source CFD Toolbox           |
|  \\    /   O peration     | Version:  v2012                                 |
|   \\  /    A nd           | Website:  www.openfoam.com                      |
|    \\/     M anipulation  |                                                 |
\*---------------------------------------------------------------------------*/
FoamFile
{
    version     2.0;
    format      ascii;
    class       surfaceScalarField;
    location    "10.8";
    object      phi;
}
// * * * * * * * * * * * * * * * * * * * * * * * * * * * * * * * * * * * * * //

dimensions      [0 3 -1 0 0 0 0];
oriented        oriented;


internalField   nonuniform List<scalar> 
19000
(
1.15041e-06
1.23092e-08
1.14042e-06
-8.44058e-08
1.16704e-06
4.82057e-07
1.15586e-06
-1.91034e-06
1.18855e-06
1.15003e-06
1.17999e-06
3.02086e-07
1.14088e-06
7.27214e-07
1.13443e-06
5.17108e-07
1.14192e-06
5.93677e-07
1.07581e-06
-1.53132e-06
1.13989e-06
5.66658e-07
1.07733e-06
-1.5737e-06
1.14406e-06
-2.63657e-07
1.11486e-06
-5.72029e-07
1.16376e-06
-1.82116e-07
1.15185e-06
9.13499e-08
1.16693e-06
-6.98154e-08
1.17671e-06
3.47158e-07
1.17981e-06
2.41436e-07
4.25749e-07
1.17919e-06
1.20655e-06
3.00191e-08
1.1966e-06
-7.445e-08
1.22225e-06
4.56402e-07
1.21207e-06
-1.90016e-06
1.2405e-06
1.12161e-06
1.23813e-06
3.04456e-07
1.19273e-06
7.72613e-07
1.18868e-06
5.21158e-07
1.19764e-06
5.84722e-07
1.13821e-06
-1.47189e-06
1.18769e-06
5.17182e-07
1.12873e-06
-1.51474e-06
1.18556e-06
-3.20479e-07
1.17009e-06
-5.56568e-07
1.20428e-06
-2.16301e-07
1.22645e-06
6.91829e-08
1.20957e-06
-5.29423e-08
1.26136e-06
2.95371e-07
1.22171e-06
2.81081e-07
3.83796e-07
1.26367e-06
1.26682e-06
4.59804e-08
1.25639e-06
-6.4013e-08
1.28078e-06
4.3201e-07
1.26993e-06
-1.88931e-06
1.2963e-06
1.09523e-06
1.29671e-06
3.04053e-07
1.25231e-06
8.17008e-07
1.24675e-06
5.26717e-07
1.25839e-06
5.73085e-07
1.20768e-06
-1.42118e-06
1.2459e-06
4.78962e-07
1.20019e-06
-1.46903e-06
1.23777e-06
-3.58053e-07
1.24008e-06
-5.58883e-07
1.2554e-06
-2.31622e-07
1.29274e-06
3.18456e-08
1.2672e-06
-2.73971e-08
1.30869e-06
2.53878e-07
1.29101e-06
2.98758e-07
3.82199e-07
1.29261e-06
1.33102e-06
5.90595e-08
1.32046e-06
-5.34446e-08
1.34218e-06
4.10282e-07
1.33079e-06
-1.87791e-06
1.35505e-06
1.07097e-06
1.3579e-06
3.01203e-07
1.31862e-06
8.5629e-07
1.31186e-06
5.33473e-07
1.32385e-06
5.61095e-07
1.28173e-06
-1.37906e-06
1.30802e-06
4.52672e-07
1.27566e-06
-1.43668e-06
1.2981e-06
-3.80491e-07
1.31447e-06
-5.75255e-07
1.31939e-06
-2.3654e-07
1.35522e-06
-3.98782e-09
1.33929e-06
-1.14667e-08
1.35707e-06
2.36102e-07
1.35918e-06
2.96646e-07
3.89564e-07
1.35181e-06
1.39874e-06
6.86698e-08
1.38898e-06
-4.36813e-08
1.40676e-06
3.92507e-07
1.39442e-06
-1.86558e-06
1.41738e-06
1.04801e-06
1.4213e-06
2.97277e-07
1.39003e-06
8.87568e-07
1.38379e-06
5.39711e-07
1.3947e-06
5.50179e-07
1.35793e-06
-1.34229e-06
1.37642e-06
4.34187e-07
1.3526e-06
-1.41286e-06
1.36551e-06
-3.93399e-07
1.3858e-06
-5.9555e-07
1.39173e-06
-2.42467e-07
1.42063e-06
-3.28838e-08
1.41718e-06
-8.02058e-09
1.42269e-06
2.30588e-07
1.42879e-06
2.90547e-07
3.9346e-07
1.4249e-06
1.46934e-06
7.50091e-08
1.46178e-06
-3.61278e-08
1.47486e-06
3.79429e-07
1.46067e-06
-1.85139e-06
1.48291e-06
1.02577e-06
1.4863e-06
2.93892e-07
1.46418e-06
9.09686e-07
1.46076e-06
5.43132e-07
1.47026e-06
5.40675e-07
1.43572e-06
-1.30774e-06
1.44986e-06
4.20039e-07
1.42845e-06
-1.39144e-06
1.43642e-06
-4.01374e-07
1.45405e-06
-6.13183e-07
1.4652e-06
-2.5361e-07
1.48884e-06
-5.65301e-08
1.49364e-06
-1.28191e-08
1.49685e-06
2.27377e-07
1.50303e-06
2.84373e-07
3.94983e-07
1.5015e-06
1.54229e-06
7.89383e-08
1.53825e-06
-3.20863e-08
1.54659e-06
3.71081e-07
1.52938e-06
-1.83417e-06
1.55087e-06
1.00427e-06
1.55253e-06
2.92233e-07
1.53981e-06
9.22408e-07
1.54125e-06
5.41695e-07
1.54983e-06
5.32093e-07
1.51565e-06
-1.27356e-06
1.52806e-06
4.07625e-07
1.50469e-06
-1.36807e-06
1.50972e-06
-4.06411e-07
1.52205e-06
-6.25513e-07
1.53732e-06
-2.68873e-07
1.55758e-06
-7.67923e-08
1.56763e-06
-2.28678e-08
1.57172e-06
2.23284e-07
1.57913e-06
2.76963e-07
3.9484e-07
1.57927e-06
1.61753e-06
8.15354e-08
1.61763e-06
-3.21875e-08
1.62169e-06
3.67023e-07
1.60044e-06
-1.81293e-06
1.62099e-06
9.8373e-07
1.62056e-06
2.92656e-07
1.61723e-06
9.25742e-07
1.62476e-06
5.34163e-07
1.63281e-06
5.24047e-07
1.59828e-06
-1.23903e-06
1.61055e-06
3.95352e-07
1.58295e-06
-1.34046e-06
1.58612e-06
-4.0958e-07
1.59228e-06
-6.3168e-07
1.60953e-06
-2.86117e-07
1.62676e-06
-9.40236e-08
1.64061e-06
-3.67251e-08
1.64601e-06
2.17891e-07
1.6555e-06
2.67472e-07
3.92272e-07
1.65807e-06
1.69546e-06
8.36468e-08
1.69952e-06
-3.62451e-08
1.69983e-06
3.66715e-07
1.67418e-06
-1.78728e-06
1.69409e-06
9.63825e-07
1.69207e-06
2.94669e-07
1.69783e-06
9.19985e-07
1.71146e-06
5.20536e-07
1.71885e-06
5.16654e-07
1.68379e-06
-1.20397e-06
1.69699e-06
3.8215e-07
1.66436e-06
-1.30783e-06
1.66651e-06
-4.11727e-07
1.66616e-06
-6.31329e-07
1.68392e-06
-3.03882e-07
1.6978e-06
-1.07901e-07
1.71439e-06
-5.33173e-08
1.72115e-06
2.11134e-07
1.73281e-06
2.55814e-07
3.86417e-07
1.73866e-06
1.77667e-06
8.5697e-08
1.78391e-06
-4.3488e-08
1.781e-06
3.69628e-07
1.75147e-06
-1.75775e-06
1.77182e-06
9.43484e-07
1.76917e-06
2.97313e-07
1.78302e-06
9.06132e-07
1.80137e-06
5.02189e-07
1.80767e-06
5.10353e-07
1.77198e-06
-1.16828e-06
1.78689e-06
3.67238e-07
1.74933e-06
-1.27027e-06
1.75129e-06
-4.13679e-07
1.74435e-06
-6.24397e-07
1.76184e-06
-3.2137e-07
1.77207e-06
-1.18132e-07
1.79037e-06
-7.16125e-08
1.7986e-06
2.02901e-07
1.81203e-06
2.42381e-07
3.76682e-07
1.82177e-06
1.86169e-06
8.77525e-08
1.87106e-06
-5.28523e-08
1.86565e-06
3.75032e-07
1.83344e-06
-1.72554e-06
1.85555e-06
9.21378e-07
1.85321e-06
2.99649e-07
1.87331e-06
8.86033e-07
1.89401e-06
4.81485e-07
1.89904e-06
5.0532e-07
1.86256e-06
-1.13179e-06
1.87971e-06
3.50089e-07
1.83783e-06
-1.22839e-06
1.84039e-06
-4.16246e-07
1.82718e-06
-6.11188e-07
1.84388e-06
-3.38065e-07
1.85034e-06
-1.24591e-07
1.86931e-06
-9.0585e-08
1.87911e-06
1.93096e-07
1.89348e-06
2.28015e-07
3.62808e-07
1.90735e-06
1.95091e-06
8.96816e-08
1.96123e-06
-6.31759e-08
1.95445e-06
3.81811e-07
1.92084e-06
-1.69192e-06
1.94546e-06
8.96761e-07
1.94403e-06
3.01075e-07
1.96806e-06
8.62009e-07
1.98855e-06
4.60995e-07
1.99287e-06
5.01002e-07
1.95537e-06
-1.09429e-06
1.97499e-06
3.30461e-07
1.9297e-06
-1.1831e-06
1.93354e-06
-4.20091e-07
1.91476e-06
-5.92402e-07
1.93026e-06
-3.53562e-07
1.93296e-06
-1.27294e-07
1.95145e-06
-1.09079e-07
1.96286e-06
1.81689e-07
1.97694e-06
2.13936e-07
3.44979e-07
1.99477e-06
2.04457e-06
9.13002e-08
2.05477e-06
-7.33723e-08
2.04799e-06
3.88583e-07
2.01375e-06
-1.65768e-06
2.04059e-06
8.69923e-07
2.04031e-06
3.01356e-07
2.06617e-06
8.36141e-07
2.08446e-06
4.42713e-07
2.0893e-06
4.96156e-07
2.0506e-06
-1.05558e-06
2.07271e-06
3.0835e-07
2.02492e-06
-1.13531e-06
2.0304e-06
-4.25568e-07
2.00706e-06
-5.69062e-07
2.02109e-06
-3.67595e-07
2.02026e-06
-1.26461e-07
2.03694e-06
-1.25757e-07
2.04983e-06
1.68798e-07
2.06222e-06
2.01543e-07
3.23889e-07
2.08331e-06
2.14283e-06
9.24749e-08
2.15209e-06
-8.26405e-08
2.14658e-06
3.94103e-07
2.11176e-06
-1.62287e-06
2.13974e-06
8.4194e-07
2.14055e-06
3.00554e-07
2.16696e-06
8.0973e-07
2.18201e-06
4.27655e-07
2.1888e-06
4.89372e-07
2.14881e-06
-1.01559e-06
2.17328e-06
2.83881e-07
2.12372e-06
-1.08575e-06
2.13081e-06
-4.32661e-07
2.10407e-06
-5.42321e-07
2.11652e-06
-3.80043e-07
2.11269e-06
-1.22631e-07
2.12619e-06
-1.39263e-07
2.1403e-06
1.54689e-07
2.14979e-06
1.92059e-07
3.00766e-07
2.17291e-06
2.24579e-06
9.31773e-08
2.25376e-06
-9.06115e-08
2.25025e-06
3.97608e-07
2.21449e-06
-1.5871e-06
2.24242e-06
8.14004e-07
2.244e-06
2.98971e-07
2.27053e-06
7.83207e-07
2.28224e-06
4.15942e-07
2.29198e-06
4.79636e-07
2.25076e-06
-9.74376e-07
2.27743e-06
2.57207e-07
2.22655e-06
-1.03487e-06
2.23496e-06
-4.41064e-07
2.20589e-06
-5.13254e-07
2.21669e-06
-3.90843e-07
2.21073e-06
-1.16672e-07
2.21994e-06
-1.48472e-07
2.235e-06
1.3963e-07
2.24095e-06
1.86112e-07
2.77272e-07
2.26444e-06
2.35357e-06
9.348e-08
2.36028e-06
-9.73198e-08
2.359e-06
3.98886e-07
2.32185e-06
-1.54995e-06
2.34898e-06
7.86876e-07
2.35087e-06
2.97077e-07
2.37764e-06
7.56441e-07
2.38643e-06
4.07155e-07
2.3995e-06
4.6656e-07
2.35717e-06
-9.32047e-07
2.38588e-06
2.285e-07
2.334e-06
-9.82991e-07
2.34328e-06
-4.50342e-07
2.31274e-06
-4.8271e-07
2.32177e-06
-3.9988e-07
2.31473e-06
-1.09631e-07
2.31887e-06
-1.52611e-07
2.33473e-06
1.23767e-07
2.33725e-06
1.83596e-07
2.55167e-07
2.35935e-06
2.46637e-06
9.35097e-08
2.47208e-06
-1.03037e-07
2.47284e-06
3.98125e-07
2.43407e-06
-1.51117e-06
2.4602e-06
7.60747e-07
2.4619e-06
2.95374e-07
2.48923e-06
7.29111e-07
2.49566e-06
4.00719e-07
2.51197e-06
4.50251e-07
2.46862e-06
-8.88694e-07
2.49912e-06
1.98003e-07
2.44654e-06
-9.30417e-07
2.45625e-06
-4.60048e-07
2.4249e-06
-4.51362e-07
2.43193e-06
-4.06906e-07
2.42483e-06
-1.02539e-07
2.42352e-06
-1.513e-07
2.44006e-06
1.0723e-07
2.43981e-06
1.83848e-07
2.35886e-07
2.45909e-06
2.58441e-06
9.33949e-08
2.58947e-06
-1.08101e-07
2.59189e-06
3.95705e-07
2.55145e-06
-1.47072e-06
2.57681e-06
7.35388e-07
2.57792e-06
2.94257e-07
2.6061e-06
7.00932e-07
2.61069e-06
3.96132e-07
2.62986e-06
4.3108e-07
2.58553e-06
-8.4436e-07
2.61745e-06
1.6608e-07
2.56452e-06
-8.77486e-07
2.57422e-06
-4.69749e-07
2.54267e-06
-4.19814e-07
2.54731e-06
-4.11546e-07
2.54113e-06
-9.63551e-08
2.53438e-06
-1.4455e-07
2.55125e-06
9.03535e-08
2.54931e-06
1.85788e-07
2.20397e-07
2.5648e-06
2.70798e-06
9.32389e-08
2.7127e-06
-1.12815e-07
2.71634e-06
3.9206e-07
2.67431e-06
-1.4287e-06
2.69933e-06
7.10375e-07
2.69962e-06
2.93961e-07
2.72884e-06
6.71715e-07
2.73194e-06
3.93038e-07
2.75351e-06
4.09507e-07
2.70825e-06
-7.99105e-07
2.74112e-06
1.33218e-07
2.6882e-06
-8.24573e-07
2.69746e-06
-4.79003e-07
2.66632e-06
-3.88682e-07
2.66814e-06
-4.13363e-07
2.66369e-06
-9.19056e-08
2.65196e-06
-1.32822e-07
2.66854e-06
7.37749e-08
2.66622e-06
1.88111e-07
2.09141e-07
2.67748e-06
2.83739e-06
9.31144e-08
2.842e-06
-1.17421e-07
2.84647e-06
3.87594e-07
2.80298e-06
-1.38521e-06
2.8281e-06
6.85254e-07
2.82747e-06
2.94598e-07
2.85784e-06
6.41343e-07
2.85968e-06
3.91194e-07
2.88317e-06
3.86023e-07
2.83714e-06
-7.53077e-07
2.87036e-06
9.99975e-08
2.81787e-06
-7.72086e-07
2.82619e-06
-4.87326e-07
2.79612e-06
-3.58608e-07
2.7947e-06
-4.11945e-07
2.79258e-06
-8.97808e-08
2.77675e-06
-1.16998e-07
2.79224e-06
5.82892e-08
2.79082e-06
1.89528e-07
2.02031e-07
2.79793e-06
2.97294e-06
9.30693e-08
2.97762e-06
-1.22098e-07
2.98258e-06
3.82638e-07
2.93777e-06
-1.34041e-06
2.9634e-06
6.59627e-07
2.96178e-06
2.96218e-07
2.99337e-06
6.09759e-07
2.99415e-06
3.90413e-07
3.01904e-06
3.61126e-07
2.9725e-06
-7.06537e-07
3.00545e-06
6.70527e-08
2.95384e-06
-7.2048e-07
2.96071e-06
-4.94195e-07
2.93231e-06
-3.30207e-07
2.92732e-06
-4.06953e-07
2.92782e-06
-9.02794e-08
2.90911e-06
-9.82951e-08
2.92263e-06
4.477e-08
2.92328e-06
1.88883e-07
1.98544e-07
2.92676e-06
3.11494e-06
9.31323e-08
3.11981e-06
-1.26964e-07
3.12502e-06
3.77422e-07
3.07902e-06
-1.2944e-06
3.10546e-06
6.33185e-07
3.10282e-06
2.98853e-07
3.13562e-06
5.76958e-07
3.13553e-06
3.90507e-07
3.16135e-06
3.35311e-07
3.11468e-06
-6.59869e-07
3.14667e-06
3.50624e-08
3.09645e-06
-6.70262e-07
3.10134e-06
-4.99082e-07
3.07514e-06
-3.04006e-07
3.06641e-06
-3.98223e-07
3.06947e-06
-9.33462e-08
3.0492e-06
-7.80213e-08
3.06002e-06
3.39479e-08
3.06351e-06
1.85395e-07
1.97786e-07
3.06427e-06
3.26372e-06
9.33174e-08
3.26884e-06
-1.32077e-07
3.27418e-06
3.72078e-07
3.22704e-06
-1.24726e-06
3.25452e-06
6.05706e-07
3.25084e-06
3.02533e-07
3.2848e-06
5.42992e-07
3.28406e-06
3.91247e-07
3.3103e-06
3.09077e-07
3.26399e-06
-6.13566e-07
3.29431e-06
4.7489e-09
3.24602e-06
-6.21979e-07
3.24846e-06
-5.01514e-07
3.22485e-06
-2.80401e-07
3.21241e-06
-3.85783e-07
3.21768e-06
-9.86164e-08
3.19714e-06
-5.74765e-08
3.2047e-06
2.63834e-08
3.21137e-06
1.78731e-07
1.98676e-07
3.21047e-06
3.41962e-06
9.36269e-08
3.42499e-06
-1.3744e-07
3.43043e-06
3.66638e-07
3.38219e-06
-1.19903e-06
3.41085e-06
5.77052e-07
3.4061e-06
3.07286e-07
3.44111e-06
5.07978e-07
3.44001e-06
3.92348e-07
3.46615e-06
2.82935e-07
3.4208e-06
-5.68216e-07
3.44871e-06
-2.31612e-08
3.40288e-06
-5.76148e-07
3.4025e-06
-5.01135e-07
3.3817e-06
-2.59602e-07
3.36578e-06
-3.69863e-07
3.3727e-06
-1.05536e-07
3.35303e-06
-3.78001e-08
3.35706e-06
2.23535e-08
3.36669e-06
1.69094e-07
2.00037e-07
3.36533e-06
3.58298e-06
9.40544e-08
3.58855e-06
-1.43011e-07
3.59414e-06
3.61051e-07
3.54484e-06
-1.14972e-06
3.57474e-06
5.47148e-07
3.5689e-06
3.13125e-07
3.60478e-06
4.72099e-07
3.60367e-06
3.93461e-07
3.62918e-06
2.5742e-07
3.58546e-06
-5.24494e-07
3.61027e-06
-4.79679e-08
3.5673e-06
-5.3318e-07
3.56394e-06
-4.97778e-07
3.54594e-06
-2.41601e-07
3.52695e-06
-3.50876e-07
3.53484e-06
-1.13422e-07
3.51698e-06
-1.99445e-08
3.51748e-06
2.186e-08
3.52946e-06
1.57114e-07
2.00726e-07
3.52877e-06
3.75417e-06
9.4586e-08
3.75987e-06
-1.48704e-07
3.76572e-06
3.55196e-07
3.71533e-06
-1.09933e-06
3.7465e-06
5.15976e-07
3.7396e-06
3.20029e-07
3.77609e-06
4.35607e-07
3.77538e-06
3.94167e-07
3.7997e-06
2.33105e-07
3.75834e-06
-4.8314e-07
3.77947e-06
-6.90935e-08
3.73954e-06
-4.93253e-07
3.73326e-06
-4.91495e-07
3.71784e-06
-2.26179e-07
3.69632e-06
-3.29361e-07
3.70444e-06
-1.2154e-07
3.68914e-06
-4.64165e-09
3.68635e-06
2.46517e-08
3.69972e-06
1.43737e-07
1.99683e-07
3.70077e-06
3.93357e-06
9.52024e-08
3.93927e-06
-1.54402e-07
3.94556e-06
3.48908e-07
3.89406e-06
-1.04783e-06
3.92646e-06
4.83572e-07
3.91857e-06
3.2792e-07
3.95535e-06
3.98828e-07
3.95552e-06
3.94e-07
3.97804e-06
2.10581e-07
3.93975e-06
-4.44846e-07
3.95685e-06
-8.61949e-08
3.91987e-06
-4.56273e-07
3.91092e-06
-4.82544e-07
3.89771e-06
-2.12968e-07
3.87424e-06
-3.05895e-07
3.88191e-06
-1.29207e-07
3.86967e-06
7.59787e-09
3.86403e-06
3.02916e-08
3.87767e-06
1.30096e-07
1.96045e-07
3.88131e-06
4.12157e-06
9.588e-08
4.12714e-06
-1.59968e-07
4.13406e-06
3.4199e-07
4.08141e-06
-9.95186e-07
4.11497e-06
4.50011e-07
4.10625e-06
3.36641e-07
4.14292e-06
3.62157e-07
4.14446e-06
3.92457e-07
4.16459e-06
1.90453e-07
4.1299e-06
-4.10159e-07
4.14295e-06
-9.92386e-08
4.10857e-06
-4.21896e-07
4.09733e-06
-4.71305e-07
4.08594e-06
-2.01575e-07
4.06105e-06
-2.8101e-07
4.06763e-06
-1.35783e-07
4.05877e-06
1.64567e-08
4.05091e-06
3.81562e-08
4.06359e-06
1.17417e-07
1.89213e-07
4.07042e-06
4.31859e-06
9.6592e-08
4.32388e-06
-1.6526e-07
4.33163e-06
3.34239e-07
4.2778e-06
-9.41353e-07
4.3124e-06
4.15412e-07
4.3031e-06
3.45938e-07
4.33919e-06
3.26066e-07
4.34261e-06
3.89041e-07
4.35986e-06
1.73201e-07
4.32904e-06
-3.79334e-07
4.33829e-06
-1.08487e-07
4.30601e-06
-3.89621e-07
4.29286e-06
-4.58158e-07
4.28298e-06
-1.91689e-07
4.25711e-06
-2.55143e-07
4.26204e-06
-1.40712e-07
4.25666e-06
2.1837e-08
4.24739e-06
4.74245e-08
4.25802e-06
1.06785e-07
1.79182e-07
4.26805e-06
4.52506e-06
9.73069e-08
4.52993e-06
-1.70132e-07
4.53871e-06
3.25459e-07
4.48367e-06
-8.86311e-07
4.51914e-06
3.79944e-07
4.50962e-06
3.55454e-07
4.54459e-06
2.91094e-07
4.55036e-06
3.8327e-07
4.56441e-06
1.59156e-07
4.53738e-06
-3.52308e-07
4.54337e-06
-1.14476e-07
4.51261e-06
-3.58856e-07
4.49785e-06
-4.43399e-07
4.4893e-06
-1.83141e-07
4.46279e-06
-2.28636e-07
4.46559e-06
-1.43509e-07
4.46362e-06
2.38057e-08
4.45387e-06
5.71785e-08
4.46168e-06
9.89692e-08
1.66584e-07
4.47428e-06
4.74143e-06
9.79891e-08
4.74575e-06
-1.74446e-07
4.75572e-06
3.15482e-07
4.69949e-06
-8.30081e-07
4.73561e-06
3.4383e-07
4.72631e-06
3.64756e-07
4.75958e-06
2.57824e-07
4.76812e-06
3.74724e-07
4.7788e-06
1.48482e-07
4.75523e-06
-3.2874e-07
4.75867e-06
-1.1792e-07
4.72884e-06
-3.29019e-07
4.71269e-06
-4.27254e-07
4.70538e-06
-1.7583e-07
4.6786e-06
-2.01857e-07
4.67876e-06
-1.43671e-07
4.67996e-06
2.26101e-08
4.67078e-06
6.63592e-08
4.67535e-06
9.44006e-08
1.52584e-07
4.68935e-06
4.96819e-06
9.85999e-08
4.9718e-06
-1.78061e-07
4.9831e-06
3.0418e-07
4.92579e-06
-7.72765e-07
4.96226e-06
3.07358e-07
4.95366e-06
3.7336e-07
4.98463e-06
2.26848e-07
4.99626e-06
3.63097e-07
5.0036e-06
1.41138e-07
4.98292e-06
-3.08063e-07
4.98464e-06
-1.19631e-07
4.95527e-06
-2.99651e-07
4.9378e-06
-4.09787e-07
4.93176e-06
-1.69789e-07
4.90507e-06
-1.75169e-07
4.90221e-06
-1.4081e-07
4.9061e-06
1.87215e-08
4.89841e-06
7.40521e-08
4.89993e-06
9.28796e-08
1.3875e-07
4.91376e-06
5.20582e-06
9.9097e-08
5.2086e-06
-1.80842e-07
5.2213e-06
2.91481e-07
5.1631e-06
-7.14564e-07
5.19958e-06
2.70879e-07
5.19218e-06
3.8076e-07
5.22029e-06
1.98741e-07
5.23514e-06
3.48241e-07
5.23942e-06
1.36863e-07
5.22091e-06
-2.89551e-07
5.22167e-06
-1.20394e-07
5.19253e-06
-2.70512e-07
5.17363e-06
-3.90884e-07
5.16891e-06
-1.65077e-07
5.1428e-06
-1.49058e-07
5.13667e-06
-1.34676e-07
5.14251e-06
1.28843e-08
5.13707e-06
7.94899e-08
5.13622e-06
9.3725e-08
1.26648e-07
5.14833e-06
5.45485e-06
9.94319e-08
5.45666e-06
-1.82645e-07
5.47076e-06
2.77376e-07
5.41199e-06
-6.55796e-07
5.44807e-06
2.34805e-07
5.44239e-06
3.86441e-07
5.46709e-06
1.74033e-07
5.48517e-06
3.30163e-07
5.48683e-06
1.35203e-07
5.46968e-06
-2.72398e-07
5.4702e-06
-1.20912e-07
5.44125e-06
-2.41569e-07
5.4207e-06
-3.70335e-07
5.41735e-06
-1.61726e-07
5.39243e-06
-1.24134e-07
5.38297e-06
-1.25217e-07
5.38978e-06
6.0797e-09
5.38703e-06
8.22333e-08
5.38485e-06
9.59089e-08
1.17346e-07
5.39415e-06
5.71584e-06
9.95521e-08
5.71653e-06
-1.8334e-07
5.73197e-06
2.61935e-07
5.67306e-06
-5.96885e-07
5.70827e-06
1.99592e-07
5.70478e-06
3.89933e-07
5.72566e-06
1.53155e-07
5.74677e-06
3.09055e-07
5.74644e-06
1.35528e-07
5.72983e-06
-2.55784e-07
5.73062e-06
-1.21703e-07
5.7021e-06
-2.13044e-07
5.67964e-06
-3.47874e-07
5.67753e-06
-1.59625e-07
5.65453e-06
-1.01124e-07
5.64186e-06
-1.12554e-07
5.64862e-06
-6.78126e-10
5.64863e-06
8.22199e-08
5.64618e-06
9.83657e-08
1.11088e-07
5.65243e-06
5.98934e-06
9.9405e-08
5.98881e-06
-1.82815e-07
6.00545e-06
2.45299e-07
5.9469e-06
-5.38334e-07
5.98077e-06
1.65726e-07
5.97989e-06
3.90812e-07
5.99664e-06
1.36407e-07
6.02041e-06
2.85275e-07
6.01885e-06
1.37093e-07
6.00202e-06
-2.38949e-07
6.00337e-06
-1.23062e-07
5.9757e-06
-1.85371e-07
5.95111e-06
-3.23279e-07
5.94991e-06
-1.58428e-07
5.92955e-06
-8.07685e-08
5.91408e-06
-9.70818e-08
5.9198e-06
-6.40186e-09
5.92232e-06
7.97054e-08
5.92048e-06
1.0021e-07
1.07446e-07
5.92412e-06
6.27596e-06
9.89366e-08
6.27412e-06
-1.80981e-07
6.29175e-06
2.27668e-07
6.23414e-06
-4.80719e-07
6.26615e-06
1.33717e-07
6.26823e-06
3.88727e-07
6.28072e-06
1.23924e-07
6.30662e-06
2.59367e-07
6.30461e-06
1.39106e-07
6.28695e-06
-2.21293e-07
6.28891e-06
-1.25022e-07
6.26271e-06
-1.59167e-07
6.23586e-06
-2.96432e-07
6.23498e-06
-1.5754e-07
6.2179e-06
-6.3689e-08
6.20039e-06
-7.95808e-08
6.20412e-06
-1.01234e-08
6.20864e-06
7.51845e-08
6.20801e-06
1.00839e-07
1.05501e-07
6.20995e-06
6.57631e-06
9.80931e-08
6.57311e-06
-1.77781e-07
6.59151e-06
2.09275e-07
6.53541e-06
-4.24624e-07
6.56509e-06
1.04044e-07
6.5704e-06
3.83411e-07
6.57869e-06
1.1563e-07
6.60598e-06
2.32085e-07
6.60431e-06
1.40773e-07
6.58541e-06
-2.02395e-07
6.58777e-06
-1.27384e-07
6.56369e-06
-1.35082e-07
6.53467e-06
-2.67414e-07
6.53336e-06
-1.56229e-07
6.51991e-06
-5.02365e-08
6.50131e-06
-6.09803e-08
6.50253e-06
-1.13505e-08
6.50832e-06
6.93951e-08
6.50915e-06
1.00013e-07
1.04298e-07
6.51035e-06
6.89107e-06
9.68163e-08
6.88645e-06
-1.73169e-07
6.90542e-06
1.90312e-07
6.85134e-06
-3.70549e-07
6.87824e-06
7.71432e-08
6.88701e-06
3.74646e-07
6.89132e-06
1.11318e-07
6.91909e-06
2.04318e-07
6.91852e-06
1.4134e-07
6.89824e-06
-1.82117e-07
6.90049e-06
-1.29636e-07
6.87914e-06
-1.13726e-07
6.84841e-06
-2.36684e-07
6.84572e-06
-1.53541e-07
6.83596e-06
-4.04803e-08
6.8174e-06
-4.2414e-08
6.81583e-06
-9.78387e-09
6.8222e-06
6.30311e-08
6.82449e-06
9.77152e-08
1.03203e-07
6.82559e-06
7.2209e-06
9.50483e-08
7.21481e-06
-1.67073e-07
7.23427e-06
1.70846e-07
7.18251e-06
-3.18781e-07
7.20632e-06
5.33296e-08
7.2187e-06
3.62262e-07
7.21935e-06
1.10674e-07
7.24661e-06
1.7705e-07
7.2478e-06
1.40158e-07
7.22625e-06
-1.60574e-07
7.22775e-06
-1.31132e-07
7.20956e-06
-9.55368e-08
7.17779e-06
-2.04914e-07
7.17274e-06
-1.48494e-07
7.16659e-06
-3.43278e-08
7.14911e-06
-2.49388e-08
7.14482e-06
-5.49197e-09
7.15106e-06
5.67946e-08
7.15467e-06
9.4109e-08
1.01757e-07
7.15611e-06
7.56655e-06
9.27224e-08
7.55886e-06
-1.59381e-07
7.57885e-06
1.50856e-07
7.52957e-06
-2.69501e-07
7.55006e-06
3.28353e-08
7.56606e-06
3.46262e-07
7.56365e-06
1.13094e-07
7.58933e-06
1.51371e-07
7.59267e-06
1.36809e-07
7.57023e-06
-1.38128e-07
7.57034e-06
-1.31243e-07
7.55536e-06
-8.05562e-08
7.52344e-06
-1.72992e-07
7.51547e-06
-1.40528e-07
7.5122e-06
-3.10547e-08
7.49692e-06
-9.66419e-09
7.49036e-06
1.07456e-09
7.49568e-06
5.14753e-08
7.50038e-06
8.94071e-08
9.97031e-08
7.50243e-06
7.92875e-06
8.97834e-08
7.91934e-06
-1.49968e-07
7.9399e-06
1.3029e-07
7.89331e-06
-2.22905e-07
7.91019e-06
1.59525e-08
7.92971e-06
3.26743e-07
7.92499e-06
1.17812e-07
7.94804e-06
1.28325e-07
7.95364e-06
1.31208e-07
7.93087e-06
-1.15364e-07
7.92902e-06
-1.29392e-07
7.91699e-06
-6.85194e-08
7.88589e-06
-1.41896e-07
7.87484e-06
-1.29479e-07
7.87352e-06
-2.97343e-08
7.86121e-06
2.6426e-09
7.85319e-06
9.10248e-09
7.8569e-06
4.77636e-08
7.86242e-06
8.38803e-08
9.69554e-08
7.86517e-06
8.30826e-06
8.62058e-08
8.2971e-06
-1.38809e-07
8.31812e-06
1.09268e-07
8.27455e-06
-1.79338e-07
8.28749e-06
3.02056e-09
8.31017e-06
3.04056e-07
8.30426e-06
1.23725e-07
8.32362e-06
1.08963e-07
8.33125e-06
1.23585e-07
8.30882e-06
-9.29349e-08
8.30451e-06
-1.25083e-07
8.29503e-06
-5.90438e-08
8.26577e-06
-1.12631e-07
8.25185e-06
-1.15563e-07
8.25149e-06
-2.93751e-08
8.24239e-06
1.17439e-08
8.23392e-06
1.75718e-08
8.23585e-06
4.58379e-08
8.24151e-06
7.82212e-08
9.33768e-08
8.24508e-06
8.70587e-06
8.19968e-08
8.69308e-06
-1.26021e-07
8.71415e-06
8.82013e-08
8.67424e-06
-1.39431e-07
8.68278e-06
-5.51326e-09
8.70798e-06
2.78855e-07
8.70201e-06
1.29695e-07
8.71714e-06
9.38304e-08
8.72615e-06
1.14573e-07
8.70454e-06
-7.13216e-08
8.69741e-06
-1.17955e-07
8.6903e-06
-5.19379e-08
8.66373e-06
-8.60603e-08
8.64758e-06
-9.94078e-08
8.6472e-06
-2.89935e-08
8.64113e-06
1.78139e-08
8.63314e-06
2.55617e-08
8.63348e-06
4.54954e-08
8.63864e-06
7.30654e-08
8.90467e-08
8.64297e-06
9.12239e-06
7.72271e-08
9.10835e-06
-1.1198e-07
9.12868e-06
6.78645e-08
9.09328e-06
-1.04026e-07
9.09698e-06
-9.21418e-09
9.12363e-06
2.52205e-07
9.11881e-06
1.34519e-07
9.12965e-06
8.29826e-08
9.13922e-06
1.05007e-07
9.1189e-06
-5.10011e-08
9.1089e-06
-1.07953e-07
9.10379e-06
-4.68356e-08
9.08069e-06
-6.29564e-08
9.06318e-06
-8.18963e-08
9.06178e-06
-2.7592e-08
9.05827e-06
2.13175e-08
9.05144e-06
3.23943e-08
9.05058e-06
4.63526e-08
9.05499e-06
6.86632e-08
8.44565e-08
9.05958e-06
9.55866e-06
7.20286e-08
9.54397e-06
-9.72868e-08
9.56257e-06
4.92622e-08
9.53249e-06
-7.3953e-08
9.53131e-06
-8.02553e-09
9.55791e-06
2.25599e-07
9.55506e-06
1.37376e-07
9.56212e-06
7.59151e-08
9.57141e-06
9.57178e-08
9.5531e-06
-3.26837e-08
9.54073e-06
-9.55922e-08
9.53675e-06
-4.28495e-08
9.5176e-06
-4.38093e-08
9.49956e-06
-6.38594e-08
9.49651e-06
-2.45367e-08
9.49493e-06
2.28967e-08
9.48963e-06
3.76955e-08
9.48791e-06
4.80738e-08
9.49155e-06
6.50204e-08
7.98945e-08
9.49611e-06
1.00156e-05
6.65911e-08
1.0001e-05
-8.2684e-08
1.00169e-05
3.33131e-08
9.99252e-06
-4.95551e-08
9.98732e-06
-2.82398e-09
1.00122e-05
2.00761e-07
1.00114e-05
1.38156e-07
1.00155e-05
7.17779e-08
1.00242e-05
8.70255e-08
1.00081e-05
-1.65631e-08
9.99409e-06
-8.15977e-08
9.99043e-06
-3.91885e-08
9.97515e-06
-2.8526e-08
9.95746e-06
-4.61702e-08
9.95267e-06
-1.97536e-08
9.95213e-06
2.34407e-08
9.94854e-06
4.12885e-08
9.94643e-06
5.01842e-08
9.94923e-06
6.2221e-08
7.54727e-08
9.95365e-06
1.04941e-05
6.10931e-08
1.04803e-05
-6.88217e-08
1.04929e-05
2.07043e-08
1.04741e-05
-3.07395e-08
1.04664e-05
4.81002e-09
1.04883e-05
1.78892e-07
1.04893e-05
1.37188e-07
1.04911e-05
6.99508e-08
1.04988e-05
7.93075e-08
1.0485e-05
-2.72222e-09
1.047e-05
-6.66641e-08
1.0466e-05
-3.51491e-08
1.04543e-05
-1.67964e-08
1.04377e-05
-2.96307e-08
1.04314e-05
-1.34502e-08
1.04311e-05
2.37798e-08
1.04291e-05
4.33126e-08
1.04271e-05
5.21454e-08
1.04289e-05
6.03891e-08
7.12165e-08
1.04332e-05
1.09954e-05
5.5702e-08
1.09828e-05
-5.61981e-08
1.09919e-05
1.15994e-08
1.09778e-05
-1.66624e-08
1.09695e-05
1.31126e-08
1.09878e-05
1.60561e-07
1.09903e-05
1.34744e-07
1.09902e-05
7.00065e-08
1.09965e-05
7.30356e-08
1.09849e-05
8.84929e-09
1.09697e-05
-5.14104e-08
1.09647e-05
-3.01844e-08
1.09558e-05
-7.93046e-09
1.09412e-05
-1.49711e-08
1.09338e-05
-6.06798e-09
1.09331e-05
2.45158e-08
1.09322e-05
4.41665e-08
1.09309e-05
5.34924e-08
1.09319e-05
5.93169e-08
6.74661e-08
1.09357e-05
1.15205e-05
5.05396e-08
1.15093e-05
-4.5001e-08
1.15153e-05
5.60648e-09
1.15047e-05
-6.02972e-09
1.14971e-05
2.06733e-08
1.15121e-05
1.45542e-07
1.15153e-05
1.3156e-07
1.1514e-05
7.13695e-08
1.15186e-05
6.83763e-08
1.15091e-05
1.83817e-08
1.14939e-05
-3.62611e-08
1.14879e-05
-2.41383e-08
1.1481e-05
-1.00087e-09
1.14685e-05
-2.53152e-09
1.14607e-05
1.72599e-09
1.14593e-05
2.5931e-08
1.14592e-05
4.43322e-08
1.14586e-05
5.40867e-08
1.14594e-05
5.848e-08
6.44862e-08
1.14624e-05
1.20707e-05
4.57021e-08
1.2061e-05
-3.53893e-08
1.20645e-05
2.1859e-09
1.20561e-05
2.36703e-09
1.20498e-05
2.69112e-08
1.20624e-05
1.33019e-07
1.20656e-05
1.28306e-07
1.20632e-05
7.3758e-08
1.20663e-05
6.52976e-08
1.20585e-05
2.6181e-08
1.2044e-05
-2.17128e-08
1.20367e-05
-1.69158e-08
1.20311e-05
4.63361e-09
1.20208e-05
7.7792e-09
1.20132e-05
9.33027e-09
1.20112e-05
2.79082e-08
1.20113e-05
4.42635e-08
1.20113e-05
5.4076e-08
1.20123e-05
5.7478e-08
6.22051e-08
1.20146e-05
1.26471e-05
4.1196e-08
1.26389e-05
-2.72098e-08
1.26404e-05
7.34541e-10
1.26334e-05
9.36397e-09
1.26284e-05
3.18749e-08
1.26395e-05
1.21943e-07
1.26424e-05
1.25362e-07
1.26391e-05
7.70843e-08
1.26406e-05
6.38032e-08
1.26342e-05
3.26049e-08
1.26208e-05
-8.36995e-09
1.26125e-05
-8.59196e-09
1.26076e-05
9.58949e-09
1.25992e-05
1.61719e-08
1.2592e-05
1.64471e-08
1.25897e-05
3.02189e-08
1.25899e-05
4.41203e-08
1.25902e-05
5.37264e-08
1.25915e-05
5.61871e-08
6.01622e-08
1.25936e-05
1.32511e-05
3.7047e-08
1.32442e-05
-2.0311e-08
1.32445e-05
3.71087e-10
1.32381e-05
1.58486e-08
1.3234e-05
3.59425e-08
1.32442e-05
1.1174e-07
1.3247e-05
1.22543e-07
1.32426e-05
8.14523e-08
1.32426e-05
6.38542e-08
1.32373e-05
3.78992e-08
1.32255e-05
3.40237e-09
1.32167e-05
2.88567e-10
1.32118e-05
1.4454e-08
1.32051e-05
2.28507e-08
1.31987e-05
2.28569e-08
1.31961e-05
3.27814e-08
1.31964e-05
4.38598e-08
1.3197e-05
5.31692e-08
1.31984e-05
5.47753e-08
5.80421e-08
1.32005e-05
1.3884e-05
3.31943e-08
1.38783e-05
-1.45553e-08
1.38781e-05
5.48043e-10
1.38714e-05
2.2543e-08
1.38676e-05
3.97039e-08
1.38775e-05
1.01859e-07
1.38806e-05
1.19431e-07
1.38753e-05
8.67756e-08
1.38736e-05
6.55097e-08
1.38692e-05
4.23727e-08
1.38591e-05
1.34277e-08
1.38504e-05
9.08164e-09
1.38453e-05
1.9494e-08
1.38398e-05
2.83993e-08
1.38343e-05
2.83011e-08
1.38315e-05
3.55556e-08
1.38319e-05
4.35441e-08
1.38327e-05
5.22976e-08
1.38341e-05
5.344e-08
5.57705e-08
1.38363e-05
1.45475e-05
2.94086e-08
1.45424e-05
-9.53142e-09
1.45407e-05
2.24768e-09
1.45345e-05
2.87835e-08
1.4531e-05
4.31551e-08
1.45403e-05
9.25799e-08
1.45437e-05
1.16019e-07
1.45381e-05
9.23773e-08
1.45351e-05
6.85059e-08
1.45312e-05
4.62951e-08
1.4523e-05
2.16689e-08
1.45147e-05
1.73275e-08
1.45096e-05
2.45673e-08
1.45048e-05
3.3285e-08
1.45003e-05
3.27857e-08
1.44975e-05
3.82894e-08
1.44978e-05
4.33335e-08
1.4499e-05
5.10464e-08
1.45004e-05
5.2081e-08
5.35959e-08
1.45025e-05
1.52418e-05
2.65246e-08
1.52325e-05
-3.01331e-10
1.52312e-05
3.63146e-09
1.52286e-05
3.13795e-08
1.52266e-05
4.51506e-08
1.52338e-05
8.53622e-08
1.52375e-05
1.12248e-07
1.52328e-05
9.71615e-08
1.52288e-05
7.25042e-08
1.52248e-05
5.02462e-08
1.52182e-05
2.82863e-08
1.5211e-05
2.45739e-08
1.52061e-05
2.94595e-08
1.52017e-05
3.76024e-08
1.51978e-05
3.67007e-08
1.51955e-05
4.05914e-08
1.51955e-05
4.33725e-08
1.5197e-05
4.95371e-08
1.51986e-05
5.04344e-08
5.16476e-08
1.52006e-05
1.59718e-05
2.20082e-08
1.59766e-05
-5.01768e-09
1.59807e-05
-5.37451e-10
1.59715e-05
4.06302e-08
1.59577e-05
5.89255e-08
1.59579e-05
8.51422e-08
1.59632e-05
1.06942e-07
1.59606e-05
9.9789e-08
1.59563e-05
7.68015e-08
1.59519e-05
5.46118e-08
1.59465e-05
3.37172e-08
1.59405e-05
3.05691e-08
1.59362e-05
3.37747e-08
1.59324e-05
4.1444e-08
1.59289e-05
4.01187e-08
1.5927e-05
4.25551e-08
1.59268e-05
4.3543e-08
1.59283e-05
4.80842e-08
1.59302e-05
4.84699e-08
4.98475e-08
1.5932e-05
1.67326e-05
2.00588e-08
1.67207e-05
6.78422e-09
1.67177e-05
2.47325e-09
1.67177e-05
4.06242e-08
1.67139e-05
6.27272e-08
1.67181e-05
8.09864e-08
1.67251e-05
9.99712e-08
1.6724e-05
1.0083e-07
1.67193e-05
8.15295e-08
1.67143e-05
5.95991e-08
1.67093e-05
3.87029e-08
1.67045e-05
3.53505e-08
1.6701e-05
3.7288e-08
1.66979e-05
4.4604e-08
1.6695e-05
4.30024e-08
1.66932e-05
4.43059e-08
1.66932e-05
4.35474e-08
1.66944e-05
4.6906e-08
1.66968e-05
4.61201e-08
4.78387e-08
1.66988e-05
1.75342e-05
1.62295e-08
1.75338e-05
7.12297e-09
1.75286e-05
7.74036e-09
1.75193e-05
4.98601e-08
1.75123e-05
6.97378e-08
1.75139e-05
7.94091e-08
1.75219e-05
9.19744e-08
1.75235e-05
9.9255e-08
1.75193e-05
8.56839e-08
1.75138e-05
6.51223e-08
1.7509e-05
4.35287e-08
1.7505e-05
3.93398e-08
1.75025e-05
3.97781e-08
1.75002e-05
4.68838e-08
1.7498e-05
4.52362e-08
1.74964e-05
4.58909e-08
1.74965e-05
4.3451e-08
1.74975e-05
4.58964e-08
1.74998e-05
4.3863e-08
4.5533e-08
1.75021e-05
1.837e-05
1.4589e-08
1.8361e-05
1.60766e-08
1.83558e-05
1.29372e-08
1.83556e-05
5.00489e-08
1.83518e-05
7.35622e-08
1.83509e-05
8.03578e-08
1.83572e-05
8.56654e-08
1.83609e-05
9.55658e-08
1.83581e-05
8.84961e-08
1.83522e-05
7.09607e-08
1.83472e-05
4.85804e-08
1.83435e-05
4.2968e-08
1.83417e-05
4.15818e-08
1.83404e-05
4.81906e-08
1.83391e-05
4.65973e-08
1.83377e-05
4.72308e-08
1.83379e-05
4.32573e-08
1.8339e-05
4.47725e-08
1.8341e-05
4.18781e-08
4.28519e-08
1.83437e-05
1.92489e-05
1.20974e-08
1.92416e-05
2.33508e-08
1.92344e-05
2.01213e-08
1.92336e-05
5.084e-08
1.92314e-05