/*--------------------------------*- C++ -*----------------------------------*\
| =========                 |                                                 |
| \\      /  F ield         | OpenFOAM: The Open Source CFD Toolbox           |
|  \\    /   O peration     | Version:  v2012                                 |
|   \\  /    A nd           | Website:  www.openfoam.com                      |
|    \\/     M anipulation  |                                                 |
\*---------------------------------------------------------------------------*/
FoamFile
{
    version     2.0;
    format      ascii;
    class       volVectorField;
    location    "10.8";
    object      U;
}
// * * * * * * * * * * * * * * * * * * * * * * * * * * * * * * * * * * * * * //

dimensions      [0 1 -1 0 0 0 0];


internalField   nonuniform List<vector> 
9600
(
(0.980951 -2.21278e-05 0)
(0.987126 -0.00100829 0)
(0.967879 0.00596466 0)
(1.02461 -0.0248622 0)
(0.961761 0.0165265 0)
(1.06168 0.00455257 0)
(0.968715 0.0117634 0)
(0.977154 0.00931004 0)
(0.966501 0.0119007 0)
(0.986096 -0.0341082 0)
(0.86751 0.0144575 0)
(1.06841 -0.041432 0)
(0.792012 -0.00580357 0)
(1.14792 -0.0178572 0)
(0.776476 -0.00467728 0)
(1.19576 0.00307409 0)
(0.794284 -0.00242276 0)
(1.17939 0.0155579 0)
(0.848528 0.0106518 0)
(1.15348 0.021911 0)
(0.983589 0.000235666 0)
(0.986694 -0.00086077 0)
(0.970283 0.00559656 0)
(1.02194 -0.0246907 0)
(0.963374 0.0161101 0)
(1.0564 0.00466547 0)
(0.972991 0.0124367 0)
(0.97244 0.00942219 0)
(0.970362 0.0115925 0)
(0.984311 -0.032119 0)
(0.885741 0.0126692 0)
(1.04071 -0.0390723 0)
(0.817053 -0.00818815 0)
(1.1065 -0.0168775 0)
(0.813632 -0.00673918 0)
(1.1458 0.00301764 0)
(0.863508 -0.00247759 0)
(1.10623 0.0135958 0)
(0.958122 0.0124562 0)
(1.03572 0.0198825 0)
(0.988245 0.000393568 0)
(0.986272 -0.000755923 0)
(0.974633 0.00527151 0)
(1.01793 -0.02454 0)
(0.967137 0.015595 0)
(1.04747 0.00468288 0)
(0.980582 0.0132732 0)
(0.968975 0.00950698 0)
(0.975592 0.011464 0)
(0.984618 -0.0311574 0)
(0.908372 0.0114954 0)
(1.02149 -0.0380496 0)
(0.86163 -0.00966371 0)
(1.05812 -0.0167697 0)
(0.879801 -0.00758524 0)
(1.07466 0.00187533 0)
(0.941155 -0.00143483 0)
(1.03363 0.0111933 0)
(1.00638 0.0137577 0)
(1.00711 0.0191222 0)
(0.993657 0.000537797 0)
(0.98648 -0.000644242 0)
(0.980258 0.00499886 0)
(1.01286 -0.0244138 0)
(0.972229 0.0152214 0)
(1.03794 0.00464669 0)
(0.988524 0.0139981 0)
(0.97053 0.0096339 0)
(0.982236 0.0112117 0)
(0.985942 -0.0301415 0)
(0.930839 0.0107906 0)
(1.00389 -0.037103 0)
(0.904421 -0.0104043 0)
(1.01962 -0.0171993 0)
(0.937558 -0.00776699 0)
(1.02641 0.000438953 0)
(0.987401 -0.000695414 0)
(1.00654 0.0100991 0)
(1.01201 0.0138765 0)
(1.01068 0.0192469 0)
(0.998431 0.000651207 0)
(0.987651 -0.000527363 0)
(0.986632 0.00476214 0)
(1.0074 -0.0242738 0)
(0.977492 0.0149277 0)
(1.0295 0.00459213 0)
(0.994562 0.0145985 0)
(0.976024 0.00976888 0)
(0.989971 0.0109861 0)
(0.988972 -0.0293089 0)
(0.948801 0.0103089 0)
(0.994753 -0.0364515 0)
(0.935407 -0.0108241 0)
(0.997513 -0.0178275 0)
(0.970412 -0.00779453 0)
(1.00785 -0.000771557 0)
(1.00637 -0.000306214 0)
(1.00692 0.00992055 0)
(1.01363 0.0134856 0)
(1.01513 0.019637 0)
(1.00165 0.000729833 0)
(0.98953 -0.000427464 0)
(0.993321 0.0045769 0)
(1.00221 -0.0241029 0)
(0.981975 0.0146239 0)
(1.02221 0.00453039 0)
(0.99779 0.0150533 0)
(0.982703 0.00987132 0)
(0.998161 0.0107948 0)
(0.992807 -0.0285413 0)
(0.962416 0.00995513 0)
(0.991538 -0.0358579 0)
(0.953798 -0.0110733 0)
(0.986932 -0.0183721 0)
(0.98383 -0.00807404 0)
(1.00337 -0.00168768 0)
(1.01207 -0.000268876 0)
(1.01196 0.00976307 0)
(1.01781 0.0131705 0)
(1.01882 0.0199928 0)
(1.00317 0.00077883 0)
(0.991489 -0.000361622 0)
(0.999775 0.00445188 0)
(0.997635 -0.0238914 0)
(0.985022 0.014312 0)
(1.01546 0.00448669 0)
(0.998383 0.0153494 0)
(0.988765 0.00989962 0)
(1.00609 0.0106238 0)
(0.996812 -0.0278002 0)
(0.973162 0.00967101 0)
(0.992045 -0.0352563 0)
(0.964112 -0.0112268 0)
(0.982154 -0.0187969 0)
(0.987499 -0.00856296 0)
(1.00135 -0.00241734 0)
(1.01214 -0.000616034 0)
(1.0141 0.00953226 0)
(1.02062 0.012924 0)
(1.02157 0.0200649 0)
(1.00345 0.000808953 0)
(0.99302 -0.000339961 0)
(1.00538 0.00438191 0)
(0.993704 -0.0236305 0)
(0.986451 0.0140172 0)
(1.00906 0.00447594 0)
(0.997332 0.0154884 0)
(0.99385 0.00982203 0)
(1.01337 0.0104633 0)
(1.0004 -0.027058 0)
(0.982325 0.00939909 0)
(0.994179 -0.03458 0)
(0.97055 -0.0113251 0)
(0.980167 -0.0190798 0)
(0.987495 -0.00910429 0)
(0.998617 -0.00307023 0)
(1.00956 -0.00116312 0)
(1.0133 0.00936964 0)
(1.02083 0.0125512 0)
(1.0227 0.0199074 0)
(1.00313 0.000830808 0)
(0.994002 -0.000364222 0)
(1.00969 0.00435848 0)
(0.990276 -0.023317 0)
(0.986711 0.01374 0)
(1.00352 0.00449696 0)
(0.996084 0.01547 0)
(0.998321 0.00962671 0)
(1.01978 0.0103111 0)
(1.00327 -0.0263077 0)
(0.990386 0.00910984 0)
(0.996838 -0.0337973 0)
(0.97548 -0.0113939 0)
(0.979745 -0.0191644 0)
(0.986504 -0.00967877 0)
(0.995498 -0.00364658 0)
(1.00583 -0.00177778 0)
(1.01083 0.00918176 0)
(1.01934 0.0120125 0)
(1.02254 0.0196613 0)
(1.00267 0.000851013 0)
(0.994601 -0.000428604 0)
(1.0126 0.00437509 0)
(0.987368 -0.0229567 0)
(0.986665 0.0134656 0)
(0.999707 0.00453896 0)
(0.99591 0.015301 0)
(1.00244 0.00932815 0)
(1.02505 0.0101742 0)
(1.0053 -0.0255479 0)
(0.997218 0.00878757 0)
(0.999456 -0.0328947 0)
(0.979743 -0.0114453 0)
(0.98032 -0.0190406 0)
(0.985504 -0.0102785 0)
(0.992592 -0.0040754 0)
(1.00189 -0.00245413 0)
(1.00763 0.00888085 0)
(1.01702 0.0113829 0)
(1.0216 0.0192924 0)
(1.00231 0.000871829 0)
(0.995041 -0.000522853 0)
(1.01415 0.00442603 0)
(0.985294 -0.0225608 0)
(0.986993 0.0131732 0)
(0.998056 0.00458559 0)
(0.997276 0.0150055 0)
(1.00602 0.00896216 0)
(1.02881 0.0100616 0)
(1.00663 -0.0247739 0)
(1.00242 0.00841743 0)
(1.00175 -0.031875 0)
(0.983419 -0.0115054 0)
(0.981544 -0.0187217 0)
(0.984798 -0.010859 0)
(0.990113 -0.0043593 0)
(0.998106 -0.00320359 0)
(1.00421 0.00849465 0)
(1.0142 0.0107197 0)
(1.01998 0.0186907 0)
(1.0021 0.000892406 0)
(0.995474 -0.000634082 0)
(1.0145 0.00450141 0)
(0.984467 -0.0221408 0)
(0.987742 0.0128444 0)
(0.998207 0.00462037 0)
(0.99972 0.0146216 0)
(1.00853 0.0085755 0)
(1.03074 0.0099704 0)
(1.00752 -0.0239783 0)
(1.00567 0.00799109 0)
(1.00363 -0.0307567 0)
(0.986341 -0.0115993 0)
(0.983097 -0.0182184 0)
(0.98444 -0.0113998 0)
(0.988047 -0.00452083 0)
(0.994561 -0.00396425 0)
(1.00064 0.00805045 0)
(1.01087 0.0100601 0)
(1.01748 0.0178276 0)
(1.00201 0.000910532 0)
(0.995959 -0.000748856 0)
(1.01386 0.00458591 0)
(0.985044 -0.0217046 0)
(0.988447 0.0124755 0)
(0.999214 0.00463415 0)
(1.0023 0.0141914 0)
(1.00963 0.00821181 0)
(1.03083 0.00987947 0)
(1.00822 -0.0231565 0)
(1.00701 0.00750338 0)
(1.00508 -0.0295626 0)
(0.988391 -0.0117396 0)
(0.984653 -0.0175548 0)
(0.984393 -0.0119001 0)
(0.986337 -0.00454979 0)
(0.991315 -0.00466812 0)
(0.996928 0.0075418 0)
(1.007 0.00945875 0)
(1.01391 0.0167602 0)
(1.00199 0.000924608 0)
(0.996479 -0.000856632 0)
(1.01257 0.00466278 0)
(0.986738 -0.0212563 0)
(0.988656 0.0120789 0)
(1.00013 0.00462699 0)
(1.00421 0.0137463 0)
(1.00939 0.00790101 0)
(1.02946 0.00976281 0)
(1.00883 -0.0223065 0)
(1.0069 0.00695586 0)
(1.00618 -0.0283148 0)
(0.989652 -0.0119241 0)
(0.985942 -0.0167776 0)
(0.984614 -0.0123421 0)
(0.98494 -0.00444629 0)
(0.988532 -0.00525691 0)
(0.993183 0.00695851 0)
(1.00271 0.00897671 0)
(1.00943 0.015575 0)
(1.00198 0.000933945 0)
(0.996974 -0.000951131 0)
(1.01104 0.00471874 0)
(0.988968 -0.0207961 0)
(0.988305 0.0116742 0)
(1.00048 0.00460333 0)
(1.00517 0.013301 0)
(1.00824 0.00765382 0)
(1.02727 0.0095987 0)
(1.00933 -0.0214285 0)
(1.00602 0.00635307 0)
(1.00697 -0.0270292 0)
(0.990402 -0.0121489 0)
(0.986839 -0.0159142 0)
(0.985062 -0.0127317 0)
(0.98383 -0.00426825 0)
(0.986366 -0.00569779 0)
(0.989695 0.00630503 0)
(0.998338 0.0086645 0)
(1.00453 0.0143594 0)
(1.00197 0.000938635 0)
(0.997385 -0.00103057 0)
(1.00961 0.00474756 0)
(0.991183 -0.0203212 0)
(0.987657 0.0112784 0)
(1.00027 0.00457099 0)
(1.00531 0.0128565 0)
(1.00674 0.00746617 0)
(1.02486 0.0093731 0)
(1.00965 -0.0205257 0)
(1.00492 0.00570069 0)
(1.00749 -0.0257157 0)
(0.990955 -0.0124027 0)
(0.98737 -0.0149977 0)
(0.985682 -0.0130714 0)
(0.982991 -0.00402761 0)
(0.984828 -0.00596108 0)
(0.986754 0.00559052 0)
(0.994282 0.00853301 0)
(0.999779 0.013197 0)
(1.00194 0.0009398 0)
(0.99769 -0.00109697 0)
(1.00844 0.00474954 0)
(0.993056 -0.0198286 0)
(0.987022 0.0108999 0)
(0.99976 0.00453988 0)
(1.00497 0.0124068 0)
(1.00528 0.00732885 0)
(1.02261 0.00908015 0)
(1.0098 -0.0195995 0)
(1.00391 0.00500183 0)
(1.00775 -0.0243768 0)
(0.991509 -0.0126732 0)
(0.987638 -0.0140569 0)
(0.986398 -0.0133415 0)
(0.982404 -0.00375423 0)
(0.983783 -0.00600545 0)
(0.984494 0.00484246 0)
(0.990789 0.00854426 0)
(0.995595 0.0121626 0)
(1.00189 0.000938917 0)
(0.997903 -0.00115439 0)
(1.00754 0.00472891 0)
(0.994489 -0.0193158 0)
(0.986576 0.0105379 0)
(0.999194 0.00451751 0)
(1.00446 0.011945 0)
(1.00405 0.00723008 0)
(1.02069 0.00872506 0)
(1.00982 -0.0186499 0)
(1.00307 0.00425772 0)
(1.00778 -0.0230174 0)
(0.992115 -0.0129499 0)
(0.987746 -0.0131046 0)
(0.987135 -0.0135371 0)
(0.982056 -0.00352087 0)
(0.983085 -0.0058325 0)
(0.982907 0.0040927 0)
(0.987963 0.00864282 0)
(0.992153 0.0113135 0)
(1.00183 0.000937282 0)
(0.998057 -0.00120679 0)
(1.00686 0.00469113 0)
(0.995516 -0.0187821 0)
(0.986361 0.0101856 0)
(0.998714 0.00450669 0)
(1.00399 0.0114671 0)
(1.00311 0.00716119 0)
(1.01912 0.00831913 0)
(1.00977 -0.0176814 0)
(1.00238 0.00349098 0)
(1.00761 -0.0216629 0)
(0.992742 -0.0132123 0)
(0.987764 -0.0121549 0)
(0.987837 -0.0136491 0)
(0.98194 -0.00333038 0)
(0.982645 -0.00544823 0)
(0.981936 0.00335837 0)
(0.985836 0.00876567 0)
(0.98949 0.0106731 0)
(1.00175 0.000935626 0)
(0.998178 -0.0012568 0)
(1.00632 0.00464158 0)
(0.996218 -0.018229 0)
(0.98635 0.00983555 0)
(0.998361 0.00450908 0)
(1.00363 0.0109693 0)
(1.00243 0.00711847 0)
(1.01782 0.00786802 0)
(1.00968 -0.0166927 0)
(1.00184 0.00271113 0)
(1.00728 -0.0203147 0)
(0.993347 -0.0134589 0)
(0.987741 -0.011226 0)
(0.988468 -0.0136452 0)
(0.982041 -0.00321676 0)
(0.982413 -0.00487306 0)
(0.981504 0.00267229 0)
(0.984406 0.00885143 0)
(0.987584 0.0102375 0)
(1.00167 0.000934594 0)
(0.998282 -0.00130724 0)
(1.00588 0.00458571 0)
(0.996686 -0.0176583 0)
(0.986499 0.0094805 0)
(0.998127 0.00452674 0)
(1.00339 0.0104503 0)
(1.00198 0.00709633 0)
(1.01674 0.00738302 0)
(1.00957 -0.0156868 0)
(1.00141 0.00192716 0)
(1.00684 -0.0189785 0)
(0.993897 -0.013679 0)
(0.987715 -0.0103501 0)
(0.989008 -0.0135172 0)
(0.982327 -0.00321142 0)
(0.982352 -0.00417138 0)
(0.981513 0.00206439 0)
(0.983619 0.00885301 0)
(0.986361 0.00999819 0)
(1.00158 0.000934832 0)
(0.998375 -0.00135967 0)
(1.0055 0.00452572 0)
(0.997 -0.017071 0)
(0.986762 0.00911621 0)
(0.997987 0.00455944 0)
(1.00325 0.00991216 0)
(1.00169 0.00709227 0)
(1.0158 0.00687493 0)
(1.00945 -0.0146756 0)
(1.00107 0.00117027 0)
(1.00634 -0.0176803 0)
(0.994383 -0.01384 0)
(0.987711 -0.00954232 0)
(0.989457 -0.0132766 0)
(0.982763 -0.00329096 0)
(0.982423 -0.00340766 0)
(0.981844 0.00155399 0)
(0.983372 0.00874102 0)
(0.985694 0.00992696 0)
(1.00151 0.000935958 0)
(0.998456 -0.0014144 0)
(1.00515 0.00446288 0)
(0.997224 -0.0164685 0)
(0.987102 0.00873964 0)
(0.997913 0.00460852 0)
(1.00315 0.00935186 0)
(1.00151 0.0071075 0)
(1.01496 0.0063537 0)
(1.00934 -0.0136684 0)
(1.00078 0.000432294 0)
(1.00581 -0.0164276 0)
(0.99481 -0.013932 0)
(0.987743 -0.00880112 0)
(0.989824 -0.0129152 0)
(0.983314 -0.00345161 0)
(0.98259 -0.00260536 0)
(0.982385 0.00117474 0)
(0.983538 0.00849967 0)
(0.985437 0.00997328 0)
(1.00146 0.000938558 0)
(0.998523 -0.00147259 0)
(1.00483 0.00439888 0)
(0.997403 -0.0158511 0)
(0.987491 0.00834561 0)
(0.997879 0.00467433 0)
(1.00307 0.00877095 0)
(1.0014 0.00713028 0)
(1.01417 0.00583175 0)
(1.00923 -0.0126776 0)
(1.00054 -0.000269466 0)
(1.00528 -0.0152349 0)
(0.995197 -0.0139467 0)
(0.98782 -0.00813572 0)
(0.990124 -0.0124353 0)
(0.983956 -0.00367816 0)
(0.982832 -0.00180885 0)
(0.983039 0.000942721 0)
(0.983995 0.00811877 0)
(0.985463 0.01008 0)
(1.00144 0.000942101 0)
(0.998575 -0.0015332 0)
(1.0045 0.00433394 0)
(0.997566 -0.01522 0)
(0.987913 0.00793301 0)
(0.997865 0.00475595 0)
(1.003 0.00817408 0)
(1.00132 0.00715428 0)
(1.01343 0.00531795 0)
(1.00911 -0.011715 0)
(1.00034 -0.000889896 0)
(1.00476 -0.0141197 0)
(0.99556 -0.0138787 0)
(0.987948 -0.00755414 0)
(0.990368 -0.01185 0)
(0.984667 -0.0039406 0)
(0.98313 -0.00108223 0)
(0.983735 0.000845685 0)
(0.984644 0.00760045 0)
(0.985679 0.0101878 0)
(1.00144 0.000946967 0)
(0.998613 -0.00159627 0)
(1.00418 0.0042659 0)
(0.997729 -0.0145752 0)
(0.988357 0.00750121 0)
(0.997857 0.00485655 0)
(1.00293 0.00756329 0)
(1.00124 0.00717665 0)
(1.01272 0.00482075 0)
(1.00899 -0.010799 0)
(1.0002 -0.00141752 0)
(1.00425 -0.0130859 0)
(0.995917 -0.0137355 0)
(0.988125 -0.00705172 0)
(0.990569 -0.0111777 0)
(0.98543 -0.0042302 0)
(0.983477 -0.000434316 0)
(0.984418 0.000892699 0)
(0.985409 0.00698457 0)
(0.986028 0.0102308 0)
(1.00145 0.000953401 0)
(0.998642 -0.00166055 0)
(1.00385 0.00419305 0)
(0.997898 -0.0139154 0)
(0.988815 0.00705023 0)
(0.997843 0.00497335 0)
(1.00287 0.00694718 0)
(1.00116 0.00718107 0)
(1.01204 0.00435448 0)
(1.00886 -0.00993944 0)
(1.00011 -0.00185522 0)
(1.00376 -0.0121181 0)
(0.99628 -0.0135243 0)
(0.988354 -0.00662558 0)
(0.990732 -0.0104408 0)
(0.986227 -0.00452255 0)
(0.983873 0.000116803 0)
(0.985053 0.00107926 0)
(0.986229 0.00632031 0)
(0.986476 0.0101511 0)
(1.00148 0.000959813 0)
(0.998667 -0.0017234 0)
(1.00352 0.00411621 0)
(0.998071 -0.0132402 0)
(0.989281 0.00658262 0)
(0.997817 0.0051052 0)
(1.00281 0.00633348 0)
(1.00106 0.00716507 0)
(1.01138 0.00392941 0)
(1.00871 -0.00915621 0)
(1.00007 -0.00219016 0)
(1.00327 -0.0112228 0)
(0.996651 -0.01324 0)
(0.988631 -0.00625701 0)
(0.990866 -0.00965391 0)
(0.987046 -0.00478311 0)
(0.984326 0.000545722 0)
(0.985615 0.00138109 0)
(0.987054 0.00565036 0)
(0.987011 0.0098934 0)
(1.0015 0.000967042 0)
(0.998693 -0.00178403 0)
(1.00318 0.00403119 0)
(0.998244 -0.0125493 0)
(0.989754 0.00609754 0)
(0.997776 0.00524893 0)
(1.00277 0.00572365 0)
(1.00095 0.0071231 0)
(1.01075 0.00356391 0)
(1.00853 -0.00846118 0)
(1.00006 -0.00243404 0)
(1.00279 -0.0103813 0)
(0.997027 -0.0128924 0)
(0.988957 -0.0059331 0)
(0.990976 -0.0088204 0)
(0.987872 -0.00499363 0)
(0.984845 0.000833822 0)
(0.986103 0.00177855 0)
(0.987846 0.00505061 0)
(0.987633 0.00943619 0)
(1.00152 0.000974812 0)
(0.998726 -0.00184183 0)
(1.00285 0.00393451 0)
(0.998407 -0.0118425 0)
(0.990233 0.00559766 0)
(0.997722 0.00539678 0)
(1.00275 0.00512699 0)
(1.00084 0.00704056 0)
(1.01012 0.00325765 0)
(1.00834 -0.00785251 0)
(1.00007 -0.00259909 0)
(1.00231 -0.00957581 0)
(0.997399 -0.0125092 0)
(0.989332 -0.00564425 0)
(0.991068 -0.00795177 0)
(0.988688 -0.00514077 0)
(0.985446 0.000974924 0)
(0.98653 0.00223382 0)
(0.988574 0.00459144 0)
(0.988338 0.00880052 0)
(1.00153 0.000982125 0)
(0.998771 -0.00189302 0)
(1.00253 0.00382242 0)
(0.998554 -0.0111197 0)
(0.990721 0.00508917 0)
(0.99766 0.00554508 0)
(1.00274 0.00455632 0)
(1.00073 0.00691394 0)
(1.0095 0.00301065 0)
(1.00813 -0.00732541 0)
(1.0001 -0.00269571 0)
(1.00183 -0.0087988 0)
(0.997758 -0.0120884 0)
(0.989761 -0.00540578 0)
(0.991145 -0.00706974 0)
(0.989477 -0.00519472 0)
(0.986135 0.000977547 0)
(0.986924 0.00269022 0)
(0.989214 0.00430956 0)
(0.989107 0.00804262 0)
(1.00152 0.000988613 0)
(0.998827 -0.00193632 0)
(1.00223 0.00369439 0)
(0.998681 -0.0103809 0)
(0.991223 0.00457672 0)
(0.997593 0.00568563 0)
(1.00275 0.00401829 0)
(1.00063 0.0067288 0)
(1.00887 0.00283859 0)
(1.00791 -0.00686623 0)
(1.00014 -0.00274752 0)
(1.00136 -0.00803801 0)
(0.998091 -0.0116347 0)
(0.99024 -0.0052065 0)
(0.991219 -0.00618319 0)
(0.990224 -0.00514348 0)
(0.986914 0.000859318 0)
(0.987318 0.00309135 0)
(0.989758 0.00419929 0)
(0.98991 0.00724189 0)
(1.00149 0.000994788 0)
(0.998895 -0.00197266 0)
(1.00195 0.00355115 0)
(0.998786 -0.00962728 0)
(0.991739 0.00406001 0)
(0.997527 0.00580956 0)
(1.00277 0.00352453 0)
(1.00055 0.00648455 0)
(1.00824 0.00273394 0)
(1.00768 -0.00645752 0)
(1.00018 -0.00277361 0)
(1.00089 -0.00728469 0)
(0.998393 -0.0111484 0)
(0.990775 -0.0050392 0)
(0.991296 -0.00529521 0)
(0.990914 -0.00498547 0)
(0.987772 0.000636435 0)
(0.987745 0.00339099 0)
(0.990204 0.00423322 0)
(0.990703 0.00650802 0)
(1.00146 0.000999306 0)
(0.998971 -0.00199849 0)
(1.00169 0.0033895 0)
(0.99887 -0.00886536 0)
(0.99227 0.00354516 0)
(0.997468 0.00591055 0)
(1.00278 0.00308545 0)
(1.0005 0.00618051 0)
(1.0076 0.00268489 0)
(1.00744 -0.00608159 0)
(1.00024 -0.00279142 0)
(1.00044 -0.00652836 0)
(0.998656 -0.0106103 0)
(0.991361 -0.00492481 0)
(0.991389 -0.00444157 0)
(0.991528 -0.00469575 0)
(0.988691 0.000349186 0)
(0.988235 0.00356161 0)
(0.990576 0.00437307 0)
(0.991441 0.00594378 0)
(1.00141 0.0010016 0)
(0.999055 -0.00201105 0)
(1.00146 0.00321027 0)
(0.998934 -0.00810014 0)
(0.992814 0.0030408 0)
(0.997417 0.00598159 0)
(1.00278 0.00270383 0)
(1.00046 0.00581402 0)
(1.00697 0.00268374 0)
(1.00718 -0.00572676 0)
(1.0003 -0.00280966 0)
(1 -0.00577466 0)
(0.998875 -0.0100181 0)
(0.991996 -0.00485134 0)
(0.991513 -0.00365196 0)
(0.992061 -0.00428511 0)
(0.989641 5.72701e-05 0)
(0.988809 0.00360247 0)
(0.990904 0.00455356 0)
(0.992083 0.00557281 0)
(1.00136 0.00100153 0)
(0.999143 -0.00201048 0)
(1.00124 0.00301829 0)
(0.998981 -0.00733909 0)
(0.993363 0.00255458 0)
(0.997377 0.00601487 0)
(1.00276 0.00239152 0)
(1.00046 0.00539772 0)
(1.00634 0.00270658 0)
(1.00691 -0.00536896 0)
(1.00039 -0.00284513 0)
(0.999591 -0.00503951 0)
(0.999043 -0.00936148 0)
(0.992669 -0.00481174 0)
(0.991682 -0.00294025 0)
(0.992511 -0.00377006 0)
(0.990594 -0.00018054 0)
(0.989471 0.00351489 0)
(0.991224 0.00469758 0)
(0.992608 0.00537811 0)
(1.00131 0.000999443 0)
(0.99923 -0.00199773 0)
(1.00106 0.00281361 0)
(0.999012 -0.00658766 0)
(0.993915 0.00209108 0)
(0.997349 0.00600766 0)
(1.00272 0.00215364 0)
(1.00048 0.00493656 0)
(1.00573 0.00274332 0)
(1.00662 -0.00499545 0)
(1.0005 -0.00289915 0)
(0.999211 -0.00434165 0)
(0.999156 -0.00863562 0)
(0.993373 -0.00479644 0)
(0.991912 -0.00232956 0)
(0.992886 -0.00315987 0)
(0.991515 -0.000362195 0)
(0.990207 0.00332314 0)
(0.991571 0.00476489 0)
(0.993027 0.00531394 0)
(1.00126 0.000991885 0)
(0.999316 -0.00196687 0)
(1.00089 0.00259719 0)
(0.999029 -0.00585128 0)
(0.994467 0.00165613 0)
(0.997337 0.00595169 0)
(1.00266 0.00198348 0)
(1.00052 0.00444423 0)
(1.00515 0.00278555 0)
(1.0063 -0.00459575 0)
(1.00063 -0.00296772 0)
(0.998877 -0.00369241 0)
(0.999212 -0.00784651 0)
(0.99409 -0.00478136 0)
(0.992217 -0.00183316 0)
(0.993192 -0.00249515 0)
(0.992376 -0.000465503 0)
(0.991008 0.00306865 0)
(0.991968 0.00474371 0)
(0.993371 0.00531181 0)
(1.0012 0.00098123 0)
(0.999397 -0.00192419 0)
(1.00075 0.00237454 0)
(0.999034 -0.00513558 0)
(0.995013 0.00125216 0)
(0.99734 0.00584237 0)
(1.00258 0.00188171 0)
(1.00058 0.00394022 0)
(1.0046 0.00280589 0)
(1.00596 -0.00416099 0)
(1.00079 -0.00303658 0)
(0.998598 -0.00311314 0)
(0.999212 -0.00699792 0)
(0.994806 -0.00472853 0)
(0.992607 -0.00145824 0)
(0.993451 -0.00181638 0)
(0.993154 -0.000455316 0)
(0.991845 0.00278129 0)
(0.99243 0.00464204 0)
(0.993684 0.00529961 0)
(1.00115 0.000967395 0)
(0.999474 -0.00186907 0)
(1.00064 0.00214682 0)
(0.999029 -0.00444722 0)
(0.995548 0.00088695 0)
(0.997362 0.00567714 0)
(1.00246 0.00185006 0)
(1.00065 0.00343429 0)
(1.00409 0.00280642 0)
(1.0056 -0.00369597 0)
(1.00097 -0.00309246 0)
(0.998389 -0.00261401 0)
(0.999163 -0.00610937 0)
(0.995497 -0.00461329 0)
(0.993083 -0.00119946 0)
(0.993687 -0.00116676 0)
(0.993837 -0.000336996 0)
(0.992696 0.00249356 0)
(0.992955 0.0044868 0)
(0.993995 0.00524186 0)
(1.00109 0.000946624 0)
(0.999546 -0.00179487 0)
(1.00054 0.00191328 0)
(0.999014 -0.00379027 0)
(0.996067 0.000575597 0)
(0.997409 0.00545584 0)
(1.00233 0.00187225 0)
(1.00073 0.00294907 0)
(1.00363 0.00276009 0)
(1.00522 -0.00320901 0)
(1.00115 -0.00311244 0)
(0.998256 -0.0022018 0)
(0.999075 -0.00520855 0)
(0.996146 -0.00441554 0)
(0.993638 -0.00105822 0)
(0.993926 -0.000581856 0)
(0.99442 -0.000100322 0)
(0.993534 0.00223414 0)
(0.993538 0.00427891 0)
(0.994325 0.00514679 0)
(1.00104 0.000920073 0)
(0.999612 -0.00170285 0)
(1.00047 0.00167294 0)
(0.998994 -0.00316514 0)
(0.996565 0.000312277 0)
(0.99748 0.00517267 0)
(1.00217 0.00193957 0)
(1.00081 0.00250954 0)
(1.00323 0.00265735 0)
(1.00483 -0.00271489 0)
(1.00133 -0.00308928 0)
(0.998203 -0.00187097 0)
(0.998962 -0.00432284 0)
(0.996729 -0.00411418 0)
(0.994257 -0.00100612 0)
(0.994203 -7.41504e-05 0)
(0.994912 0.000219977 0)
(0.994329 0.00203617 0)
(0.994173 0.00401876 0)
(0.994693 0.00502312 0)
(1.001 0.000888456 0)
(0.99967 -0.00159112 0)
(1.00042 0.00142139 0)
(0.998969 -0.00257916 0)
(0.997036 0.000102685 0)
(0.997579 0.00483606 0)
(1.002 0.00203334 0)
(1.00088 0.00212399 0)
(1.00287 0.00251925 0)
(1.00443 -0.00222753 0)
(1.0015 -0.00302413 0)
(0.998226 -0.00160951 0)
(0.998844 -0.00347993 0)
(0.997234 -0.00371873 0)
(0.994922 -0.00098994 0)
(0.994534 0.000322034 0)
(0.995327 0.000569603 0)
(0.995057 0.00192846 0)
(0.994846 0.00372752 0)
(0.995111 0.00485158 0)
(1.00095 0.000847765 0)
(0.99972 -0.00145449 0)
(1.00039 0.00116623 0)
(0.99894 -0.00203882 0)
(0.997474 -4.12415e-05 0)
(0.997707 0.00445639 0)
(1.00182 0.00213378 0)
(1.00094 0.00181646 0)
(1.00257 0.00234768 0)
(1.00403 -0.00174976 0)
(1.00164 -0.00288878 0)
(0.998324 -0.00141738 0)
(0.998735 -0.00269807 0)
(0.997653 -0.00325063 0)
(0.995605 -0.000981607 0)
(0.99493 0.000578962 0)
(0.995697 0.000904303 0)
(0.995703 0.00191018 0)
(0.995527 0.00345101 0)
(0.995589 0.00462871 0)
(1.0009 0.000801798 0)
(0.999761 -0.00130074 0)
(1.00038 0.00091533 0)
(0.998913 -0.00154865 0)
(0.997874 -0.000119433 0)
(0.997859 0.00404502 0)
(1.00165 0.00222666 0)
(1.00098 0.00159498 0)
(1.00232 0.0021569 0)
(1.00364 -0.00129817 0)
(1.00177 -0.00267773 0)
(0.99849 -0.00127528 0)
(0.998657 -0.00200943 0)
(0.997989 -0.00272634 0)
(0.996274 -0.000949219 0)
(0.995388 0.000725377 0)
(0.996048 0.00119593 0)
(0.99627 0.00195309 0)
(0.996186 0.00322432 0)
(0.996113 0.00437362 0)
(1.00086 0.000751186 0)
(0.999789 -0.00113927 0)
(1.00038 0.000681574 0)
(0.998892 -0.00112517 0)
(0.998235 -0.00013129 0)
(0.998029 0.00363351 0)
(1.00148 0.00228501 0)
(1.001 0.00143846 0)
(1.00212 0.00197278 0)
(1.00326 -0.000886713 0)
(1.00186 -0.00241141 0)
(0.99871 -0.00115858 0)
(0.998623 -0.00143599 0)
(0.998253 -0.00217453 0)
(0.996908 -0.00087671 0)
(0.995904 0.000792752 0)
(0.996406 0.00142016 0)
(0.996771 0.00202517 0)
(0.996806 0.00305263 0)
(0.996664 0.00411905 0)
(1.00083 0.000695251 0)
(0.999802 -0.000973813 0)
(1.0004 0.0004765 0)
(0.998882 -0.000777549 0)
(0.998551 -8.01418e-05 0)
(0.998209 0.00324202 0)
(1.00132 0.00230435 0)
(1.001 0.00133802 0)
(1.00196 0.00179657 0)
(1.00292 -0.000517551 0)
(1.00192 -0.00209243 0)
(0.998965 -0.00106378 0)
(0.998637 -0.000971419 0)
(0.998459 -0.00162921 0)
(0.997481 -0.000744705 0)
(0.996455 0.000813442 0)
(0.996783 0.00158075 0)
(0.997225 0.00211117 0)
(0.997383 0.00291932 0)
(0.99722 0.0038838 0)
(1.00079 0.000639433 0)
(0.999805 -0.000815868 0)
(1.00043 0.000308468 0)
(0.998884 -0.000505188 0)
(0.998833 1.87279e-05 0)
(0.998395 0.00288871 0)
(1.00118 0.00229498 0)
(1.00099 0.00128441 0)
(1.00183 0.00163755 0)
(1.00261 -0.000189071 0)
(1.00194 -0.00173558 0)
(0.99924 -0.000966441 0)
(0.998712 -0.000604572 0)
(0.998631 -0.00111315 0)
(0.997995 -0.000555283 0)
(0.997027 0.000821364 0)
(0.997191 0.00168287 0)
(0.997639 0.00220162 0)
(0.997908 0.00281268 0)
(0.997767 0.00365625 0)
(1.00075 0.000584162 0)
(0.999802 -0.000671274 0)
(1.00045 0.00018049 0)
(0.998898 -0.000296759 0)
(0.999086 0.000141121 0)
(0.998581 0.00259 0)
(1.00106 0.00226659 0)
(1.00096 0.00126534 0)
(1.00173 0.00149995 0)
(1.00234 8.48001e-05 0)
(1.00194 -0.0013757 0)
(0.999519 -0.000849985 0)
(0.998844 -0.000326399 0)
(0.998786 -0.000643287 0)
(0.998443 -0.000318151 0)
(0.997595 0.000844649 0)
(0.997632 0.00172695 0)
(0.998031 0.00227861 0)
(0.998378 0.00275193 0)
(0.998297 0.00345297 0)
(1.00072 0.00053136 0)
(0.999789 -0.000542846 0)
(1.00048 9.27951e-05 0)
(0.998927 -0.000140104 0)
(0.999308 0.000251879 0)
(0.998761 0.00234645 0)
(1.00095 0.00222209 0)
(1.00092 0.00128048 0)
(1.00165 0.00138799 0)
(1.0021 0.000309701 0)
(1.00192 -0.00100977 0)
(0.999789 -0.000705639 0)
(0.999025 -0.000113419 0)
(0.99894 -0.000240756 0)
(0.998827 -5.92719e-05 0)
(0.998133 0.000895475 0)
(0.998091 0.00173305 0)
(0.99842 0.00231686 0)
(0.998798 0.00272395 0)
(0.998792 0.00328715 0)
(1.00069 0.000479932 0)
(0.99977 -0.000429684 0)
(1.00052 3.91065e-05 0)
(0.998965 -1.94704e-05 0)
(0.999509 0.00034091 0)
(0.998938 0.00214151 0)
(1.00086 0.00216768 0)
(1.00087 0.00131212 0)
(1.00159 0.00130751 0)
(1.00191 0.000492342 0)
(1.00187 -0.000651199 0)
(1.00004 -0.00052737 0)
(0.999241 5.46297e-05 0)
(0.999105 0.000101961 0)
(0.999167 0.000203977 0)
(0.998637 0.000970107 0)
(0.998557 0.00173431 0)
(0.998819 0.00232063 0)
(0.999192 0.00269793 0)
(0.999239 0.00316637 0)
(1.00067 0.000436139 0)
(0.999753 -0.000340972 0)
(1.00054 1.81505e-05 0)
(0.99901 7.7413e-05 0)
(0.999695 0.000415281 0)
(0.999111 0.00196438 0)
(1.00079 0.00213019 0)
(1.00081 0.00137161 0)
(1.00154 0.00126616 0)
(1.00176 0.000637888 0)
(1.00183 -0.000328537 0)
(1.00026 -0.000327809 0)
(0.999481 0.000185801 0)
(0.999289 0.000372569 0)
(0.999463 0.000443077 0)
(0.9991 0.00104823 0)
(0.999015 0.00173499 0)
(0.999218 0.0023107 0)
(0.999569 0.0026576 0)
(0.999636 0.00308516 0)
(1.00064 0.000390066 0)
(0.999733 -0.000243584 0)
(1.00057 -6.12083e-06 0)
(0.99906 0.000155237 0)
(0.999863 0.000456994 0)
(0.999282 0.00177351 0)
(1.00075 0.00207063 0)
(1.00075 0.00144052 0)
(1.0015 0.00125105 0)
(1.00165 0.00076272 0)
(1.00178 -3.97179e-05 0)
(1.00046 -0.000104773 0)
(0.999732 0.000321873 0)
(0.999496 0.000590694 0)
(0.999738 0.000653974 0)
(0.99953 0.00112413 0)
(0.99947 0.0017178 0)
(0.999619 0.00228616 0)
(0.999944 0.00258252 0)
(1.00001 0.00298466 0)
(1.00062 0.000343333 0)
(0.999708 -0.000185633 0)
(1.0006 2.34013e-05 0)
(0.999115 0.000277462 0)
(1.00001 0.000557051 0)
(0.999452 0.00165666 0)
(1.00073 0.0020416 0)
(1.00069 0.00153691 0)
(1.00145 0.00126661 0)
(1.00156 0.000860926 0)
(1.00175 0.000209617 0)
(1.00064 0.000128092 0)
(0.999984 0.000476983 0)
(0.999713 0.00078244 0)
(0.999985 0.000848761 0)
(0.999914 0.00122243 0)
(0.999909 0.0017033 0)
(1.00001 0.00226339 0)
(1.0003 0.00252617 0)
(1.00037 0.00288776 0)
(1.0006 0.000340119 0)
(0.999697 -0.000174461 0)
(1.00065 -1.77982e-05 0)
(0.999183 0.00028279 0)
(1.00014 0.000541547 0)
(0.99962 0.00146634 0)
(1.00073 0.00197114 0)
(1.00063 0.00164843 0)
(1.00141 0.00133318 0)
(1.0015 0.000952471 0)
(1.00174 0.000423721 0)
(1.00081 0.000358016 0)
(1.00023 0.000629078 0)
(0.999937 0.000940331 0)
(1.00022 0.00100767 0)
(1.00026 0.00131351 0)
(1.00033 0.00166961 0)
(1.0004 0.0021924 0)
(1.00065 0.00245691 0)
(1.00072 0.0027683 0)
(1.00058 0.000243731 0)
(0.999661 2.46603e-05 0)
(1.00068 8.66267e-05 0)
(0.999244 0.000436259 0)
(1.00026 0.000638394 0)
(0.9998 0.0013339 0)
(1.0008 0.00186934 0)
(1.00061 0.00171506 0)
(1.00135 0.00138964 0)
(1.00144 0.00102673 0)
(1.00174 0.000583833 0)
(1.00096 0.000550568 0)
(1.00047 0.00077212 0)
(1.00016 0.00109427 0)
(1.00045 0.00116109 0)
(1.00056 0.00141054 0)
(1.00071 0.00166958 0)
(1.0008 0.00212608 0)
(1.00099 0.00239367 0)
(1.00105 0.00267172 0)
(1.00057 0.000265163 0)
(0.999667 -5.36744e-05 0)
(1.00071 -8.82798e-06 0)
(0.999307 0.000447348 0)
(1.00034 0.000712706 0)
(0.999933 0.00127429 0)
(1.00085 0.00183115 0)
(1.00058 0.00182382 0)
(1.0013 0.0014986 0)
(1.0014 0.00113425 0)
(1.00176 0.000724193 0)
(1.00113 0.000710008 0)
(1.00071 0.000897289 0)
(1.0004 0.00122097 0)
(1.00067 0.00128525 0)
(1.00085 0.00148906 0)
(1.00106 0.00167191 0)
(1.00118 0.00204579 0)
(1.00134 0.00228923 0)
(1.00136 0.00257024 0)
(1.00055 0.000207182 0)
(0.999609 -5.80991e-06 0)
(1.00076 -9.49313e-06 0)
(0.99942 0.00052056 0)
(1.00047 0.00086566 0)
(1.00012 0.00127734 0)
(1.00098 0.00174789 0)
(1.0006 0.00186858 0)
(1.00125 0.0015979 0)
(1.00136 0.00123237 0)
(1.00179 0.000836554 0)
(1.00129 0.000832153 0)
(1.00095 0.000993837 0)
(1.00064 0.00132611 0)
(1.00088 0.00139894 0)
(1.0011 0.00157621 0)
(1.00136 0.00169297 0)
(1.00153 0.00199265 0)
(1.00169 0.00217757 0)
(1.00167 0.00247353 0)
(1.00054 0.000167565 0)
(0.999624 0.000118146 0)
(1.0008 8.24797e-05 0)
(0.999517 0.000604922 0)
(1.00054 0.000962105 0)
(1.00021 0.00121739 0)
(1.00107 0.00156104 0)
(1.00064 0.00181013 0)
(1.00121 0.00167724 0)
(1.00132 0.00135532 0)
(1.00182 0.000959083 0)
(1.00146 0.00094178 0)
(1.00121 0.00106469 0)
(1.0009 0.001399 0)
(1.00111 0.00147927 0)
(1.00134 0.00164077 0)
(1.00165 0.00170186 0)
(1.00185 0.00194829 0)
(1.00204 0.00205566 0)
(1.00199 0.00234721 0)
(1.00054 0.000179046 0)
(0.999578 6.77287e-05 0)
(1.00084 8.08899e-05 0)
(0.999629 0.000629111 0)
(1.00064 0.00103413 0)
(1.00032 0.00123205 0)
(1.0012 0.00145767 0)
(1.00075 0.0017568 0)
(1.00121 0.00174876 0)
(1.00128 0.00148926 0)
(1.00183 0.00108018 0)
(1.00161 0.00103644 0)
(1.00145 0.00111174 0)
(1.00116 0.00143615 0)
(1.00133 0.0015356 0)
(1.00156 0.00169684 0)
(1.00189 0.00170987 0)
(1.00212 0.00192291 0)
(1.00235 0.00195731 0)
(1.00231 0.00220423 0)
(1.00053 0.000116275 0)
(0.999586 0.000247746 0)
(1.0009 0.000212162 0)
(0.999756 0.000651173 0)
(1.00071 0.00106624 0)
(1.00038 0.00127499 0)
(1.00129 0.00138577 0)
(1.00085 0.00167723 0)
(1.00124 0.00178115 0)
(1.00125 0.00162097 0)
(1.00184 0.00122225 0)
(1.00174 0.00113833 0)
(1.00169 0.0011579 0)
(1.00144 0.00145333 0)
(1.00157 0.00155811 0)
(1.00178 0.00173713 0)
(1.00214 0.00170836 0)
(1.00237 0.00189689 0)
(1.00261 0.00188865 0)
(1.00261 0.00206468 0)
(1.00052 0.000118607 0)
(0.999554 0.0003118 0)
(1.00088 0.000300098 0)
(0.999833 0.0006438 0)
(1.0008 0.0010515 0)
(1.00046 0.00128683 0)
(1.00139 0.00132146 0)
(1.00099 0.00156826 0)
(1.00132 0.0017382 0)