/*--------------------------------*- C++ -*----------------------------------*\
| =========                 |                                                 |
| \\      /  F ield         | OpenFOAM: The Open Source CFD Toolbox           |
|  \\    /   O peration     | Version:  v2012                                 |
|   \\  /    A nd           | Website:  www.openfoam.com                      |
|    \\/     M anipulation  |                                                 |
\*---------------------------------------------------------------------------*/
FoamFile
{
    version     2.0;
    format      ascii;
    class       volScalarField;
    location    "10.9";
    object      p;
}
// * * * * * * * * * * * * * * * * * * * * * * * * * * * * * * * * * * * * * //

dimensions      [0 2 -2 0 0 0 0];


internalField   nonuniform List<scalar> 
9600
(
1.39557e-11
-0.00219593
0.000190633
0.00607962
-0.00544853
-0.00461703
0.00373982
-0.00102526
-0.0025848
-0.00261328
-0.0041288
-0.0044931
-0.00626988
-0.00642576
-0.00687913
-0.00845709
-0.00886706
-0.0085838
-0.00888054
-0.00784497
1.4913e-06
-0.00217909
0.000183659
0.00601677
-0.0054102
-0.00459544
0.00366374
-0.00101192
-0.00260251
-0.00261414
-0.0041031
-0.00449502
-0.00625913
-0.0064532
-0.00687671
-0.0084603
-0.00885962
-0.00859812
-0.00885395
-0.00795521
5.10813e-06
-0.00216052
0.000163655
0.00593771
-0.00534258
-0.0045656
0.003594
-0.000993055
-0.00262573
-0.00261835
-0.00408351
-0.00450759
-0.00625033
-0.00649748
-0.00686518
-0.00846072
-0.00884337
-0.00862495
-0.00883115
-0.00811026
9.22536e-06
-0.00214332
0.000136644
0.00584275
-0.00527907
-0.00451369
0.00352667
-0.000976735
-0.00265361
-0.00263163
-0.00406315
-0.00453535
-0.00624846
-0.00654104
-0.00685435
-0.00844693
-0.00883248
-0.00865653
-0.00882447
-0.00827155
1.35102e-05
-0.00212673
0.000103503
0.00572695
-0.00521721
-0.00443278
0.00345268
-0.000963203
-0.00268791
-0.00265237
-0.00403787
-0.00457728
-0.00624672
-0.00658333
-0.00684499
-0.00842291
-0.00882865
-0.00868597
-0.00883508
-0.00842699
1.79131e-05
-0.00211124
6.53742e-05
0.00559018
-0.00514526
-0.00433082
0.00336334
-0.000952362
-0.00272973
-0.00267643
-0.00400723
-0.00462817
-0.00624131
-0.00662699
-0.00683326
-0.00839601
-0.00882685
-0.00871101
-0.00886387
-0.00857003
2.20197e-05
-0.00209704
2.47962e-05
0.00543689
-0.0050584
-0.00422176
0.00325377
-0.000944506
-0.00277783
-0.00270208
-0.00397321
-0.00468119
-0.00623162
-0.00667112
-0.00681906
-0.00836874
-0.00882491
-0.0087348
-0.00890785
-0.00869768
2.53849e-05
-0.00208373
-1.59484e-05
0.00527255
-0.00495714
-0.00411736
0.00312504
-0.00093957
-0.00282935
-0.00272903
-0.00393755
-0.0047313
-0.00621751
-0.00671466
-0.00680399
-0.0083404
-0.00882624
-0.0087578
-0.00896236
-0.00881506
2.78405e-05
-0.00207037
-5.57219e-05
0.00510162
-0.00484477
-0.00402282
0.00298264
-0.000937205
-0.00288254
-0.00275724
-0.00390082
-0.00477661
-0.00620003
-0.00675769
-0.00678836
-0.00831109
-0.00883391
-0.0087775
-0.00902644
-0.00893069
2.95736e-05
-0.00205601
-9.44831e-05
0.00492676
-0.00472565
-0.00393792
0.00283279
-0.000937421
-0.00293724
-0.00278671
-0.00386336
-0.0048176
-0.00618126
-0.00679975
-0.00677259
-0.00828128
-0.00884846
-0.00879318
-0.00910156
-0.00904968
3.09924e-05
-0.00204016
-0.000132796
0.00474906
-0.00460359
-0.00386035
0.0026798
-0.000940466
-0.00299337
-0.00281734
-0.00382577
-0.00485601
-0.00616316
-0.00683994
-0.00675808
-0.00825023
-0.00887024
-0.00880666
-0.00918644
-0.00917371
3.24807e-05
-0.0020229
-0.000171308
0.00456871
-0.00448108
-0.00378784
0.00252605
-0.000946512
-0.00305099
-0.00284919
-0.00378872
-0.00489378
-0.00614729
-0.00687751
-0.00674639
-0.00821652
-0.00890016
-0.00881988
-0.00927684
-0.00930458
3.42545e-05
-0.00200478
-0.000210497
0.00438555
-0.00435929
-0.00371875
0.00237276
-0.000955653
-0.0031103
-0.00288215
-0.00375246
-0.00493274
-0.00613496
-0.00691183
-0.00673897
-0.00817897
-0.00893838
-0.00883472
-0.00936818
-0.00944451
3.63646e-05
-0.00198646
-0.000250631
0.00419942
-0.00423848
-0.00365215
0.00222045
-0.000967855
-0.00317149
-0.00291612
-0.00371713
-0.00497409
-0.00612715
-0.00694237
-0.00673706
-0.00813687
-0.00898394
-0.0088539
-0.00945642
-0.00959417
3.87591e-05
-0.00196851
-0.000291833
0.00401028
-0.00411859
-0.00358763
0.00206922
-0.000982967
-0.00323475
-0.00295121
-0.00368281
-0.0050181
-0.00612452
-0.00696868
-0.00674143
-0.00809034
-0.00903531
-0.0088805
-0.00953797
-0.00975217
4.13358e-05
-0.0019513
-0.000334156
0.00381822
-0.00399951
-0.00352506
0.00191905
-0.00100081
-0.00330033
-0.00298756
-0.00364946
-0.00506439
-0.00612743
-0.00699037
-0.00675228
-0.00804056
-0.00909062
-0.00891716
-0.00961014
-0.00991591
4.39698e-05
-0.00193502
-0.000377631
0.00362342
-0.00388127
-0.00346445
0.00176977
-0.00102115
-0.00336842
-0.00302524
-0.00361707
-0.00511221
-0.00613593
-0.00700735
-0.00676941
-0.0079892
-0.0091479
-0.00896582
-0.00967136
-0.0100822
4.65234e-05
-0.00191977
-0.000422286
0.00342613
-0.00376404
-0.00340582
0.00162115
-0.0010437
-0.00343917
-0.00306435
-0.00358564
-0.00516065
-0.00615002
-0.00701993
-0.00679211
-0.00793791
-0.00920557
-0.00902767
-0.00972095
-0.0102473
4.88502e-05
-0.00190553
-0.000468173
0.00322664
-0.00364809
-0.00334921
0.00147298
-0.00106807
-0.00351265
-0.00310512
-0.00355507
-0.00520883
-0.00616971
-0.00702868
-0.00681929
-0.00788812
-0.00926268
-0.0091032
-0.00975882
-0.0104065
5.07932e-05
-0.00189224
-0.000515393
0.00302533
-0.0035338
-0.00329464
0.00132506
-0.00109388
-0.00358881
-0.00314796
-0.00352522
-0.00525612
-0.00619483
-0.00703415
-0.00685009
-0.00784106
-0.0093183
-0.00919267
-0.00978548
-0.0105542
5.21742e-05
-0.00187976
-0.000564073
0.0028226
-0.00342162
-0.00324205
0.00117719
-0.00112078
-0.00366749
-0.00319345
-0.0034958
-0.00530218
-0.00622505
-0.00703669
-0.00688431
-0.00779754
-0.00937085
-0.00929671
-0.00980247
-0.0106842
5.28015e-05
-0.00186791
-0.000614368
0.00261884
-0.00331204
-0.00319138
0.00102914
-0.00114849
-0.00374844
-0.00324231
-0.0034664
-0.00534696
-0.00626009
-0.00703628
-0.00692244
-0.00775803
-0.00941822
-0.00941673
-0.00981279
-0.010789
5.24628e-05
-0.00185647
-0.000666502
0.00241449
-0.00320556
-0.00314256
0.000880629
-0.00117682
-0.00383121
-0.00329548
-0.00343633
-0.00539065
-0.00630006
-0.00703251
-0.0069652
-0.00772358
-0.00945777
-0.00955354
-0.00982164
-0.0108606
5.08955e-05
-0.00184516
-0.000720721
0.00221
-0.00310271
-0.00309556
0.00073148
-0.00120576
-0.00391504
-0.0033542
-0.00340492
-0.00543305
-0.00634567
-0.00702492
-0.007013
-0.00769637
-0.00948589
-0.0097057
-0.00983666
-0.0108926
4.77944e-05
-0.00183367
-0.000777273
0.00200578
-0.00300401
-0.00305036
0.000581546
-0.00123544
-0.00399892
-0.00341996
-0.00337177
-0.00547339
-0.00639808
-0.00701296
-0.00706541
-0.00767955
-0.00949851
-0.00986863
-0.00986834
-0.0108825
4.28129e-05
-0.00182163
-0.000836436
0.00180223
-0.00290993
-0.003007
0.000430773
-0.00126608
-0.00408168
-0.00349411
-0.00333712
-0.00551074
-0.0064585
-0.00699615
-0.00712079
-0.00767699
-0.009493
-0.0100345
-0.00992841
-0.0108362
3.55614e-05
-0.00180865
-0.000898477
0.00159975
-0.00282091
-0.00296562
0.000279248
-0.00129816
-0.0041619
-0.00357767
-0.00330175
-0.00554372
-0.0065282
-0.00697455
-0.00717602
-0.00769292
-0.00947031
-0.0101927
-0.0100253
-0.0107688
2.5602e-05
-0.0017943
-0.000963673
0.00139867
-0.00273727
-0.00292645
0.000127257
-0.00133238
-0.0042382
-0.00367122
-0.0032668
-0.00557043
-0.00660851
-0.00694941
-0.00722707
-0.0077309
-0.00943553
-0.0103307
-0.010159
-0.0107021
1.24519e-05
-0.00177808
-0.00103229
0.00119925
-0.00265917
-0.00288986
-2.46843e-05
-0.00136962
-0.00430965
-0.00377504
-0.00323382
-0.00558857
-0.00670041
-0.00692328
-0.00726925
-0.00779251
-0.00939688
-0.0104364
-0.0103193
-0.0106614
-4.44388e-06
-0.00175951
-0.00110446
0.00100162
-0.00258677
-0.00285631
-0.000175896
-0.00141074
-0.00437562
-0.00388902
-0.00320479
-0.00559595
-0.00680425
-0.0068997
-0.00729763
-0.0078766
-0.00936428
-0.0105027
-0.0104888
-0.0106674
-2.56525e-05
-0.00173811
-0.00118023
0.000805858
-0.0025201
-0.00282658
-0.000325461
-0.00145624
-0.00443559
-0.00401252
-0.00318213
-0.00559097
-0.00691978
-0.00688311
-0.00730744
-0.00797879
-0.00934846
-0.0105296
-0.0106475
-0.0107253
-5.17511e-05
-0.0017134
-0.00125959
0.000611895
-0.00245881
-0.0028018
-0.000472415
-0.00150597
-0.0044898
-0.00414441
-0.00316833
-0.00557244
-0.00704603
-0.00687916
-0.00729495
-0.00809158
-0.00935901
-0.0105246
-0.0107756
-0.0108216
-8.34241e-05
-0.00168489
-0.00134227
0.000419363
-0.0024022
-0.00278304
-0.0006164
-0.00155968
-0.00453889
-0.00428325
-0.00316565
-0.00553947
-0.00718107
-0.00689417
-0.0072585
-0.00820519
-0.00940266
-0.0105007
-0.0108595
-0.0109318
-0.000121279
-0.00165225
-0.00142787
0.000227846
-0.00234952
-0.00277132
-0.000757755
-0.00161676
-0.00458343
-0.00442782
-0.00317613
-0.00549163
-0.00732168
-0.0069342
-0.00719914
-0.00830875
-0.00948211
-0.0104717
-0.0108962
-0.0110322
-0.000165888
-0.00161539
-0.00151559
3.68053e-05
-0.00229998
-0.0027674
-0.000897188
-0.00167588
-0.00462397
-0.00457724
-0.0032018
-0.00542922
-0.00746335
-0.00700468
-0.00712116
-0.0083905
-0.00959644
-0.0104506
-0.0108896
-0.0111046
-0.000217836
-0.00157439
-0.00160425
-0.000154598
-0.00225256
-0.00277127
-0.00103627
-0.00173573
-0.00466035
-0.00473083
-0.0032451
-0.00535336
-0.00760002
-0.00711022
-0.00703287
-0.00843743
-0.00974078
-0.0104521
-0.0108455
-0.0111375
-0.000277575
-0.00152965
-0.00169226
-0.000347544
-0.00220655
-0.00278206
-0.00117755
-0.00179538
-0.00469132
-0.00488853
-0.00330893
-0.00526559
-0.0077239
-0.00725405
-0.00694743
-0.00843691
-0.00990278
-0.0104938
-0.0107748
-0.011121
-0.000345497
-0.00148202
-0.00177717
-0.00054345
-0.00216236
-0.00279804
-0.00132383
-0.0018545
-0.00471514
-0.00505015
-0.00339649
-0.00516835
-0.00782648
-0.00743604
-0.006881
-0.0083814
-0.010061
-0.0105906
-0.0106975
-0.0110462
-0.000421785
-0.00143305
-0.00185557
-0.00074353
-0.00212148
-0.00281637
-0.00147797
-0.00191413
-0.00472934
-0.0052144
-0.00351069
-0.00506577
-0.00789932
-0.00765088
-0.00685018
-0.00827432
-0.0101905
-0.0107435
-0.0106432
-0.010915
-0.000506392
-0.0013848
-0.00192334
-0.00094894
-0.00208695
-0.00283294
-0.00164222
-0.00197665
-0.00473095
-0.00537862
-0.00365435
-0.00496396
-0.00793482
-0.00788865
-0.00686983
-0.00813005
-0.0102668
-0.0109349
-0.010643
-0.0107505
-0.000599109
-0.00133941
-0.00197662
-0.00116024
-0.00206281
-0.00284335
-0.00181682
-0.00204578
-0.00471753
-0.0055387
-0.00383017
-0.00487136
-0.00792729
-0.00813618
-0.00695055
-0.00796896
-0.0102725
-0.0111365
-0.0107146
-0.0105889
-0.000699468
-0.0012993
-0.00201258
-0.0013766
-0.00205377
-0.00284407
-0.00199971
-0.00212672
-0.00468866
-0.00568977
-0.00403874
-0.00479767
-0.00787459
-0.00837852
-0.00709665
-0.00781337
-0.0102005
-0.0113196
-0.0108546
-0.0104694
-0.000806016
-0.00126678
-0.00203
-0.00159603
-0.00206463
-0.00283279
-0.00218732
-0.00222571
-0.00464689
-0.00582484
-0.00427662
-0.0047532
-0.0077801
-0.00859948
-0.00730452
-0.00768693
-0.010055
-0.0114574
-0.0110454
-0.0104197
-0.000917881
-0.00124414
-0.00202884
-0.00181478
-0.00210007
-0.00280969
-0.0023735
-0.00234877
-0.00459761
-0.00593559
-0.00453632
-0.00474767
-0.00765289
-0.00878334
-0.00756157
-0.00761256
-0.0098516
-0.0115256
-0.0112632
-0.0104498
-0.00103365
-0.00123353
-0.00201077
-0.002027
-0.00216431
-0.00277773
-0.00254969
-0.00249948
-0.00454819
-0.00601513
-0.00480841
-0.00478841
-0.0075062
-0.00891758
-0.00784811
-0.00760676
-0.00961692
-0.0115064
-0.0114795
-0.0105577
-0.00115169
-0.00123682
-0.00197902
-0.00222623
-0.00225978
-0.00274222
-0.00270631
-0.00267698
-0.00450994
-0.00606113
-0.00508075
-0.00487809
-0.00735507
-0.00899583
-0.00814254
-0.00767262
-0.0093824
-0.0113976
-0.0116615
-0.0107311
-0.00127016
-0.00125587
-0.00193795
-0.00240612
-0.00238633
-0.0027116
-0.00283522
-0.00287563
-0.00449657
-0.00607774
-0.0053386
-0.0050122
-0.00721433
-0.00901954
-0.00842551
-0.00780152
-0.0091767
-0.0112162
-0.0117788
-0.0109449
-0.00138703
-0.00129229
-0.00189284
-0.00256019
-0.00254132
-0.0026976
-0.00293322
-0.0030848
-0.00451721
-0.00607298
-0.00557021
-0.0051805
-0.00709626
-0.00899566
-0.0086813
-0.00797983
-0.00901902
-0.01099
-0.0118141
-0.0111637
-0.00150042
-0.00134664
-0.00185014
-0.00268307
-0.00272001
-0.00271279
-0.00300286
-0.00328915
-0.00457255
-0.00605885
-0.00577106
-0.00537057
-0.00700877
-0.00893367
-0.00889708
-0.00819243
-0.00891974
-0.0107468
-0.0117693
-0.0113507
-0.00160891
-0.00141879
-0.00181657
-0.00277207
-0.00291425
-0.00276679
-0.0030507
-0.00347493
-0.00465678
-0.00604828
-0.00594166
-0.00556956
-0.00695465
-0.00884617
-0.00906581
-0.0084229
-0.00888223
-0.0105109
-0.0116595
-0.0114781
-0.00171145
-0.00150791
-0.00179843
-0.00282777
-0.00311271
-0.00286377
-0.00308825
-0.00363344
-0.00476178
-0.00605113
-0.00608616
-0.00576704
-0.00693155
-0.00874598
-0.0091874
-0.00865433
-0.00890127
-0.0102998
-0.0115053
-0.0115375
-0.00180762
-0.00161125
-0.00180104
-0.00285347
-0.00330327
-0.00300312
-0.00313108
-0.00376096
-0.00487461
-0.00607085
-0.006211
-0.0059572
-0.00693495
-0.00864212
-0.00926602
-0.00887364
-0.00896608
-0.0101237
-0.0113252
-0.0115362
-0.00189772
-0.00172486
-0.00182718
-0.00285617
-0.00347456
-0.00318016
-0.00319779
-0.00386236
-0.0049808
-0.00610492
-0.00632244
-0.00613623
-0.00695978
-0.00854062
-0.00930501
-0.00907101
-0.00906497
-0.00998713
-0.0111321
-0.0114854
-0.00198202
-0.00184529
-0.00187893
-0.00284589
-0.00361701
-0.00338544
-0.00330061
-0.00394579
-0.00507178
-0.00614945
-0.00642745
-0.00630441
-0.00700267
-0.00844904
-0.00931019
-0.00923768
-0.00918699
-0.00989266
-0.0109372
-0.0113953
-0.00206124
-0.00196728
-0.00195579
-0.00283524
-0.00372693
-0.0036046
-0.00344288
-0.00402441
-0.00514323
-0.00619556
-0.00652632
-0.00646123
-0.00705826
-0.00837246
-0.0092925
-0.00936889
-0.00931826
-0.00984302
-0.0107537
-0.0112731
-0.00213876
-0.00208913
-0.00205485
-0.00283179
-0.00380439
-0.00382188
-0.00362312
-0.00411194
-0.00519754
-0.00623672
-0.00661764
-0.0066063
-0.00712098
-0.0083084
-0.00925984
-0.00946675
-0.00944439
-0.00983209
-0.0105936
-0.0111261
-0.00221515
-0.0022183
-0.00217512
-0.00284276
-0.00385155
-0.00402697
-0.00383332
-0.00421433
-0.00523909
-0.00627132
-0.00670289
-0.00674188
-0.0071902
-0.00825484
-0.00921473
-0.00953888
-0.00956082
-0.00984838
-0.0104647
-0.0109667
-0.00228529
-0.00231584
-0.00230869
-0.00288698
-0.00389966
-0.00421711
-0.00405625
-0.00433383
-0.0052726
-0.00629426
-0.00677884
-0.00686671
-0.00726227
-0.00821201
-0.00915808
-0.00958583
-0.0096673
-0.00988325
-0.0103691
-0.0108104
-0.00237144
-0.00243318
-0.00245306
-0.00295441
-0.00393956
-0.00437892
-0.00427839
-0.00447161
-0.00530732
-0.00630616
-0.00684482
-0.00698351
-0.00733552
-0.0081806
-0.00909524
-0.00960346
-0.00975744
-0.00993122
-0.0103037
-0.0106693
-0.00244324
-0.00253061
-0.00260818
-0.00304907
-0.00397728
-0.00451233
-0.00449333
-0.0046273
-0.00535237
-0.00631205
-0.00690047
-0.0070935
-0.00740974
-0.00815603
-0.00902982
-0.00959482
-0.00982325
-0.00998749
-0.010267
-0.0105505
-0.00252355
-0.0026351
-0.00276016
-0.00315511
-0.00401843
-0.00462302
-0.00469481
-0.00479608
-0.00541048
-0.0063159
-0.00694616
-0.00719769
-0.00748997
-0.00813979
-0.00896264
-0.00956864
-0.00986421
-0.0100434
-0.0102569
-0.0104575
-0.00262055
-0.00274265
-0.00290489
-0.00326682
-0.00406543
-0.00471749
-0.00488119
-0.00497328
-0.00548504
-0.00632187
-0.00698042
-0.0072905
-0.00757371
-0.00813578
-0.00889133
-0.00952237
-0.00987927
-0.0100861
-0.0102643
-0.0103907
-0.00272987
-0.00286446
-0.0030456
-0.00338239
-0.00412242
-0.00480082
-0.00504929
-0.00514972
-0.00557355
-0.00633098
-0.00699964
-0.00736572
-0.00765484
-0.00814648
-0.00882362
-0.0094544
-0.00986677
-0.0101069
-0.0102748
-0.0103494
-0.00281797
-0.00295698
-0.00319123
-0.00353217
-0.0042002
-0.0048762
-0.00519722
-0.00531978
-0.00567262
-0.00634514
-0.00700413
-0.00742116
-0.00772972
-0.00817127
-0.00877458
-0.00938002
-0.00982951
-0.0101046
-0.0102759
-0.0103228
-0.00292576
-0.00306915
-0.00333294
-0.00368056
-0.00429038
-0.0049472
-0.00532549
-0.00548074
-0.00578015
-0.00636676
-0.00699732
-0.00745398
-0.00778947
-0.00819664
-0.00873936
-0.00930916
-0.00977446
-0.0100818
-0.0102623
-0.0103002
-0.00304489
-0.00318425
-0.00346901
-0.00382739
-0.00439111
-0.00501743
-0.00543429
-0.00562595
-0.00589084
-0.00639854
-0.00698768
-0.00746822
-0.00783355
-0.00821924
-0.00870762
-0.00924057
-0.00970828
-0.0100411
-0.0102341
-0.0102724
-0.00317322
-0.00330953
-0.0036004
-0.00396987
-0.00449975
-0.0050907
-0.00552917
-0.00575662
-0.00600286
-0.00644149
-0.00698027
-0.00746634
-0.00785688
-0.00823587
-0.00867696
-0.00916874
-0.00963136
-0.00998183
-0.0101885
-0.0102303
-0.00329509
-0.00343159
-0.00373326
-0.00411339
-0.00461602
-0.00516992
-0.00561529
-0.00587376
-0.00611223
-0.00649128
-0.00697473
-0.00745078
-0.00785376
-0.0082351
-0.00864646
-0.00909369
-0.0095422
-0.00990608
-0.0101274
-0.0101754
-0.00342887
-0.00356274
-0.00386543
-0.0042526
-0.00473798
-0.00525797
-0.0056959
-0.00597356
-0.00621158
-0.00654284
-0.00697036
-0.00742655
-0.00782879
-0.00820672
-0.00860465
-0.00901391
-0.00943421
-0.00980528
-0.0100443
-0.0101056
-0.00357331
-0.00370618
-0.00399775
-0.00438737
-0.004863
-0.00535292
-0.0057743
-0.00605814
-0.00629475
-0.00659106
-0.00696617
-0.00739198
-0.00778764
-0.00815186
-0.00853912
-0.00892922
-0.00931466
-0.00967729
-0.00992953
-0.0100078
-0.00371315
-0.0038437
-0.00413627
-0.00452503
-0.00499065
-0.00545258
-0.00585198
-0.00613409
-0.00636601
-0.00663328
-0.00696303
-0.0073474
-0.00772771
-0.00807376
-0.00843833
-0.0088213
-0.00918243
-0.0095261
-0.00978253
-0.00987272
-0.00386173
-0.00399277
-0.00427864
-0.0046588
-0.00511555
-0.00555666
-0.00593226
-0.00620589
-0.00643155
-0.00666944
-0.00695654
-0.00729088
-0.00763864
-0.00796479
-0.00829693
-0.00866741
-0.00901592
-0.00933983
-0.00959592
-0.00969806
-0.00402081
-0.00414956
-0.00442484
-0.00479085
-0.00523572
-0.00565945
-0.00601784
-0.00628159
-0.00649362
-0.00670193
-0.00694303
-0.00721537
-0.00750834
-0.00780601
-0.00810388
-0.00844979
-0.00879653
-0.00911126
-0.00936744
-0.00948516
-0.00418385
-0.00430933
-0.00457928
-0.00492838
-0.00535158
-0.00575319
-0.00610373
-0.00637397
-0.00658241
-0.00675341
-0.00693044
-0.00711744
-0.00732144
-0.00755235
-0.00778179
-0.00804683
-0.00834715
-0.00865443
-0.00896559
-0.00920859
-0.004352
-0.0044783
-0.00474264
-0.00507036
-0.00546085
-0.00582963
-0.00616813
-0.00648245
-0.00676211
-0.00696527
-0.00707393
-0.00714201
-0.00723479
-0.00738413
-0.00752836
-0.00763058
-0.00766402
-0.0075973
-0.00746288
-0.00735493
-0.00452355
-0.00464782
-0.00490237
-0.00521213
-0.00556873
-0.00588884
-0.00616322
-0.00639369
-0.00659326
-0.00677045
-0.00694103
-0.00709187
-0.00721061
-0.00730874
-0.00735756
-0.00735227
-0.00731486
-0.00727522
-0.00726712
-0.00735913
-0.00477705
-0.00489617
-0.00505027
-0.00524679
-0.00554087
-0.00585101
-0.00613615
-0.00637308
-0.00657819
-0.00677545
-0.00697802
-0.00714666
-0.00727049
-0.00736055
-0.00739324
-0.00736611
-0.00727704
-0.00713897
-0.00698587
-0.00690534
-0.00481192
-0.00489013
-0.00506938
-0.00529544
-0.00559094
-0.00588715
-0.00615865
-0.00638714
-0.00657995
-0.00674992
-0.00691154
-0.00703474
-0.0071087
-0.00718896
-0.00729112
-0.00745129
-0.00771535
-0.00808536
-0.00851438
-0.00891202
-0.00504337
-0.00513507
-0.00523
-0.00535829
-0.00559203
-0.00586535
-0.00614394
-0.00637939
-0.00658573
-0.0067726
-0.0069397
-0.00709126
-0.00718361
-0.00722354
-0.00721726
-0.00714105
-0.00700392
-0.00684127
-0.00671802
-0.00671482
-0.00512774
-0.00521477
-0.00528198
-0.00538193
-0.00559156
-0.00585351
-0.00613469
-0.00638087
-0.00659981
-0.00680765
-0.00697664
-0.00711516
-0.00719816
-0.00720587
-0.00716909
-0.00710674
-0.00704823
-0.00703208
-0.00709408
-0.00728626
-0.0065036
-0.0098322
-0.0157485
-0.0199686
-0.0203416
-0.018787
-0.0171346
-0.0157679
-0.0147186
-0.0140608
-0.0137578
-0.0136496
-0.0136018
-0.0135149
-0.013244
-0.0127961
-0.0124208
-0.0122429
-0.012108
-0.0119327
-0.0117674
-0.0115888
-0.0113518
-0.011076
-0.0107944
-0.0105152
-0.010233
-0.00997507
-0.00977562
-0.009612
-0.0094298
-0.00922826
-0.00906479
-0.00894848
-0.00883121
-0.00869274
-0.00858878
-0.00854401
-0.00850218
-0.00840706
-0.00829387
-0.00817286
-0.00803239
-0.00787075
-0.00769026
-0.00751758
-0.00735198
-0.00713047
-0.006877
-0.00668558
-0.00657941
-0.00651879
-0.00647702
-0.00638169
-0.00615781
-0.00586916
-0.0056262
-0.00544546
-0.00527945
-0.00512119
-0.00495846
-0.00477492
-0.00457832
-0.0043454
-0.00412234
-0.0039084
-0.00368137
-0.00342872
-0.00319016
-0.00295955
-0.00271219
-0.00246924
-0.00220741
-0.00192154
-0.0016056
-0.00130703
-0.00100533
-0.000713577
-0.000387015
-7.56894e-05
0.000234521
0.000534389
0.000861941
0.00121891
0.00158779
0.00195677
0.0022833
0.00263801
0.00298232
0.00338242
0.00375425
0.00414464
0.00456365
0.00495671
0.00538677
0.00583217
0.00624685
0.00673035
0.00720561
0.00761145
-0.00681251
-0.00991346
-0.0156446
-0.0198277
-0.0202648
-0.0187515
-0.0171119
-0.0157506
-0.0147045
-0.0140489
-0.0137477
-0.0136414
-0.0135954
-0.0135101
-0.0132404
-0.0127929
-0.0124177
-0.0122401
-0.0121056
-0.0119305
-0.0117654
-0.011587
-0.0113502
-0.0110744
-0.0107928
-0.0105137
-0.0102316
-0.00997363
-0.00977423
-0.00961071
-0.00942859
-0.00922703
-0.00906356
-0.00894733
-0.00883015
-0.0086917
-0.00858773
-0.00854301
-0.00850128
-0.00840622
-0.00829304
-0.00817207
-0.00803164
-0.00787006
-0.00768961
-0.00751695
-0.00735142
-0.00712997
-0.00687649
-0.00668505
-0.00657889
-0.00651831
-0.0064766
-0.00638135
-0.0061575
-0.00586882
-0.00562586
-0.00544513
-0.00527913
-0.0051209
-0.00495818
-0.00477466
-0.00457808
-0.00434517
-0.00412211
-0.00390818
-0.00368116
-0.00342851
-0.00318995
-0.00295935
-0.00271199
-0.00246905
-0.00220723
-0.00192137
-0.00160543
-0.00130686
-0.00100517
-0.000713421
-0.000386866
-7.55376e-05
0.000234668
0.000534529
0.000862071
0.00121903
0.00158791
0.00195689
0.00228341
0.00263811
0.00298242
0.00338252
0.00375435
0.00414472
0.00456375
0.0049568
0.00538685
0.00583226
0.00624695
0.00673044
0.00720575
0.00761156
-0.00720459
-0.0100384
-0.0154593
-0.0195643
-0.0201263
-0.0187016
-0.0170887
-0.0157337
-0.0146904
-0.014037
-0.0137373
-0.0136318
-0.0135867
-0.0135031
-0.0132352
-0.0127889
-0.0124144
-0.0122374
-0.0121032
-0.0119282
-0.0117634
-0.0115854
-0.0113487
-0.011073
-0.0107915
-0.0105124
-0.0102303
-0.00997233
-0.00977299
-0.0096096
-0.00942754
-0.00922595
-0.00906247
-0.00894631
-0.00882922
-0.00869078
-0.00858679
-0.00854214
-0.00850053
-0.0084055
-0.00829235
-0.00817141
-0.00803099
-0.00786944
-0.00768902
-0.0075164
-0.00735094
-0.00712954
-0.00687601
-0.00668453
-0.00657841
-0.00651788
-0.00647627
-0.00638112
-0.00615725
-0.0058685
-0.00562552
-0.00544483
-0.00527886
-0.00512064
-0.00495796
-0.00477444
-0.00457788
-0.00434496
-0.0041219
-0.00390799
-0.00368098
-0.00342833
-0.00318977
-0.00295918
-0.00271182
-0.0024689
-0.00220708
-0.00192123
-0.00160528
-0.00130671
-0.00100502
-0.00071329
-0.000386735
-7.54026e-05
0.000234796
0.000534647
0.000862177
0.00121913
0.00158802
0.00195701
0.00228352
0.00263821
0.00298251
0.0033826
0.00375444
0.0041448
0.00456383
0.00495687
0.00538693
0.00583234
0.00624703
0.00673052
0.00720588
0.00761168
-0.00758502
-0.0101532
-0.0152129
-0.0192157
-0.0199262
-0.018628
-0.0170555
-0.0157101
-0.0146719
-0.0140229
-0.0137258
-0.0136203
-0.013574
-0.0134904
-0.0132248
-0.0127818
-0.0124096
-0.0122336
-0.0120996
-0.0119249
-0.0117608
-0.0115834
-0.011347
-0.0110714
-0.0107899
-0.0105109
-0.010229
-0.00997102
-0.00977175
-0.00960849
-0.00942652
-0.00922489
-0.00906135
-0.00894522
-0.00882822
-0.00868983
-0.00858584
-0.00854123
-0.00849973
-0.00840478
-0.00829168
-0.00817074
-0.0080303
-0.00786878
-0.0076884
-0.00751581
-0.00735044
-0.00712905
-0.00687545
-0.00668395
-0.00657786
-0.00651742
-0.00647596
-0.00638094
-0.00615701
-0.00586813
-0.00562514
-0.00544451
-0.00527856
-0.00512037
-0.00495773
-0.00477421
-0.00457767
-0.00434475
-0.00412168
-0.0039078
-0.00368081
-0.00342815
-0.00318958
-0.00295901
-0.00271165
-0.00246874
-0.00220694
-0.00192109
-0.00160513
-0.00130656
-0.00100488
-0.00071316
-0.000386602
-7.52621e-05
0.000234926
0.000534765
0.00086228
0.00121924
0.00158813
0.00195713
0.00228362
0.0026383
0.00298259
0.00338269
0.00375453
0.00414487
0.00456391
0.00495695
0.00538699
0.00583242
0.0062471
0.0067306
0.00720602
0.00761184
-0.00794164
-0.0102551
-0.0149466
-0.0188399
-0.0197008
-0.0185427
-0.0170169
-0.0156812
-0.0146488
-0.014006
-0.0137125
-0.0136066
-0.0135569
-0.0134709
-0.0132077
-0.0127705
-0.0124028
-0.0122279
-0.0120936
-0.0119192
-0.0117563
-0.0115802
-0.0113446
-0.0110693
-0.0107879
-0.0105092
-0.0102275
-0.00996977
-0.00977053
-0.00960736
-0.00942555
-0.00922393
-0.0090602
-0.00894395
-0.00882705
-0.00868881
-0.00858484
-0.00854016
-0.00849873
-0.00840397
-0.00829098
-0.00817
-0.00802948
-0.007868
-0.0076877
-0.00751515
-0.00734983
-0.00712845
-0.00687479
-0.00668325
-0.00657719
-0.00651688
-0.00647562
-0.00638074
-0.00615673
-0.00586769
-0.0056247
-0.00544414
-0.00527822
-0.00512007
-0.00495748
-0.00477397
-0.00457743
-0.00434451
-0.00412145
-0.00390759
-0.00368061
-0.00342795
-0.00318937
-0.00295884
-0.00271147
-0.00246857
-0.0022068
-0.00192094
-0.00160496
-0.00130639
-0.00100473
-0.000713023
-0.00038646
-7.51085e-05
0.000235066
0.00053489
0.000862388
0.00121935
0.00158825
0.00195726
0.00228373
0.0026384
0.00298269
0.00338278
0.00375463
0.00414494
0.004564
0.00495702
0.00538706
0.0058325
0.00624717
0.00673067
0.00720618
0.00761205
-0.00827121
-0.0103619
-0.0146908
-0.0184612
-0.0194636
-0.018452
-0.0169769
-0.0156499
-0.0146224
-0.0139866
-0.0136977
-0.0135913
-0.0135365
-0.0134459
-0.0131848
-0.0127555
-0.0123941
-0.0122203
-0.0120849
-0.0119106
-0.0117491
-0.011575
-0.0113409
-0.0110664
-0.0107854
-0.010507
-0.0102259
-0.00996859
-0.00976939
-0.0096063
-0.00942481
-0.00922329
-0.00905916
-0.00894248
-0.00882568
-0.00868778
-0.00858379
-0.00853882
-0.00849739
-0.00840297
-0.00829022
-0.00816913
-0.00802846
-0.00786709
-0.00768694
-0.00751443
-0.00734908
-0.0071277
-0.006874
-0.00668241
-0.00657637
-0.00651621
-0.00647523
-0.00638049
-0.00615636
-0.00586715
-0.00562417
-0.0054437
-0.00527781
-0.0051197
-0.00495718
-0.00477367
-0.00457715
-0.00434422
-0.00412118
-0.00390735
-0.00368038
-0.00342772
-0.00318915
-0.00295864
-0.00271127
-0.0024684
-0.00220664
-0.00192079
-0.00160478
-0.00130622
-0.00100456
-0.000712877
-0.000386306
-7.49418e-05
0.000235216
0.000535025
0.000862503
0.00121948
0.00158839
0.00195741
0.00228385
0.00263851
0.00298279
0.00338288
0.00375473
0.00414503
0.0045641
0.00495711
0.00538714
0.00583257
0.00624724
0.00673073
0.00720632
0.00761231
-0.00857636
-0.0104862
-0.0144569
-0.0180828
-0.0192132
-0.0183542
-0.0169359
-0.0156173
-0.0145933
-0.0139646
-0.0136812
-0.0135748
-0.0135145
-0.013418
-0.0131586
-0.0127383
-0.0123843
-0.0122114
-0.0120741
-0.0118992
-0.0117391
-0.0115673
-0.0113354
-0.0110623
-0.0107819
-0.0105042
-0.0102241
-0.00996742
-0.00976824
-0.00960527
-0.00942441
-0.00922323
-0.00905846
-0.00894093
-0.00882417
-0.00868685
-0.0085828
-0.00853718
-0.00849557
-0.00840165
-0.00828929
-0.008168
-0.0080271
-0.00786593
-0.00768614
-0.0075137
-0.00734823
-0.00712682
-0.00687312
-0.00668143
-0.00657533
-0.00651537
-0.00647473
-0.00638014
-0.00615586
-0.0058665
-0.00562355
-0.00544317
-0.00527729
-0.00511926
-0.00495681
-0.0047733
-0.00457679
-0.00434388
-0.00412087
-0.00390707
-0.0036801
-0.00342746
-0.00318891
-0.00295843
-0.00271105
-0.00246821
-0.00220647
-0.00192062
-0.00160459
-0.00130603
-0.00100439
-0.000712722
-0.000386143
-7.47635e-05
0.000235377
0.000535169
0.000862627
0.00121962
0.00158854
0.00195758
0.00228399
0.00263863
0.0029829
0.00338299
0.00375486
0.00414512
0.0045642
0.0049572
0.00538721
0.00583264
0.00624732
0.00673077
0.00720644
0.00761264
-0.00886124
-0.0106275
-0.0142423
-0.0177006
-0.0189461
-0.0182474
-0.0168938
-0.0155842
-0.0145619
-0.0139398
-0.0136627
-0.0135571
-0.0134914
-0.0133887
-0.0131306
-0.0127197
-0.0123739
-0.0122019
-0.0120621
-0.0118861
-0.011727
-0.0115574
-0.011328
-0.0110568
-0.0107774
-0.0105009
-0.0102221
-0.00996616
-0.00976695
-0.00960414
-0.00942426
-0.0092238
-0.00905828
-0.00893947
-0.00882264
-0.00868612
-0.00858201
-0.0085353
-0.00849325
-0.00839994
-0.00828807
-0.00816644
-0.00802517
-0.00786436
-0.0076852
-0.00751294
-0.00734732
-0.00712595
-0.00687229
-0.00668037
-0.00657407
-0.00651433
-0.00647409
-0.00637962
-0.0061552
-0.00586571
-0.00562283
-0.0054425
-0.00527664
-0.0051187
-0.00495635
-0.00477281
-0.00457631
-0.00434344
-0.00412049
-0.0039067
-0.00367975
-0.00342714
-0.00318862
-0.00295817
-0.0027108
-0.002468
-0.00220629
-0.00192043
-0.00160437
-0.00130582
-0.0010042
-0.000712556
-0.000385968
-7.45747e-05
0.000235547
0.000535324
0.000862763
0.00121977
0.00158871
0.00195776
0.00228414
0.00263877
0.00298303
0.00338312
0.00375499
0.00414522
0.00456432
0.00495729
0.00538728
0.00583268
0.00624741
0.00673076
0.00720651
0.00761303
-0.00912442
-0.0107761
-0.0140437
-0.0173155
-0.0186626
-0.0181307
-0.0168507
-0.0155512
-0.0145283
-0.0139121
-0.0136421
-0.0135383
-0.0134676
-0.0133584
-0.0131015
-0.0127001
-0.0123627
-0.0121918
-0.0120495
-0.0118721
-0.0117136
-0.0115459
-0.011319
-0.0110499
-0.010772
-0.010497
-0.0102199
-0.0099648
-0.00976545
-0.00960277
-0.00942419
-0.00922485
-0.00905864
-0.00893826
-0.00882121
-0.00868569
-0.00858152
-0.00853338
-0.00849061
-0.00839794
-0.00828655
-0.00816436
-0.00802251
-0.00786213
-0.0076839
-0.00751202
-0.00734633
-0.00712521
-0.00687176
-0.00667947
-0.00657273
-0.0065131
-0.00647326
-0.00637888
-0.00615432
-0.0058648
-0.00562201
-0.0054417
-0.00527581
-0.00511799
-0.00495575
-0.00477217
-0.00457567
-0.00434288
-0.00412002
-0.00390623
-0.00367929
-0.00342673
-0.00318826
-0.00295784
-0.0027105
-0.00246776
-0.00220607
-0.00192021
-0.00160413
-0.00130559
-0.00100399
-0.00071237
-0.000385777
-7.43759e-05
0.000235725
0.000535488
0.00086291
0.00121993
0.0015889
0.00195796
0.0022843
0.00263893
0.00298318
0.00338327
0.00375515