/*--------------------------------*- C++ -*----------------------------------*\
| =========                 |                                                 |
| \\      /  F ield         | OpenFOAM: The Open Source CFD Toolbox           |
|  \\    /   O peration     | Version:  v2012                                 |
|   \\  /    A nd           | Website:  www.openfoam.com                      |
|    \\/     M anipulation  |                                                 |
\*---------------------------------------------------------------------------*/
FoamFile
{
    version     2.0;
    format      ascii;
    class       surfaceScalarField;
    location    "10.9";
    object      phi;
}
// * * * * * * * * * * * * * * * * * * * * * * * * * * * * * * * * * * * * * //

dimensions      [0 3 -1 0 0 0 0];
oriented        oriented;


internalField   nonuniform List<scalar> 
19000
(
1.18695e-06
2.36441e-07
1.25392e-06
2.31948e-07
1.20067e-06
5.0127e-07
1.02735e-06
-5.89944e-07
1.18396e-06
1.16786e-06
1.16457e-06
1.6678e-06
1.11735e-06
5.75077e-08
1.16477e-06
4.94289e-07
1.11651e-06
-2.37913e-07
1.1352e-06
7.63656e-08
1.16386e-06
1.68495e-08
1.16085e-06
2.82468e-07
1.17605e-06
6.6101e-07
1.13582e-06
3.74095e-07
1.14894e-06
5.37683e-07
1.13388e-06
3.82829e-07
1.13344e-06
1.92149e-07
1.13752e-06
2.31121e-07
1.1365e-06
2.22294e-07
2.67216e-07
1.11758e-06
1.24183e-06
2.18872e-07
1.31214e-06
1.6164e-07
1.25719e-06
5.56216e-07
1.07561e-06
-4.08365e-07
1.24351e-06
9.99966e-07
1.23102e-06
1.68029e-06
1.17991e-06
1.08623e-07
1.22997e-06
4.44228e-07
1.18131e-06
-1.89256e-07
1.19687e-06
6.08077e-08
1.22483e-06
-1.11128e-08
1.22278e-06
2.84521e-07
1.23108e-06
6.52705e-07
1.19868e-06
4.065e-07
1.19629e-06
5.4007e-07
1.20466e-06
3.74462e-07
1.18031e-06
2.16496e-07
1.20991e-06
2.01525e-07
1.17764e-06
2.54562e-07
2.44154e-07
1.2007e-06
1.29809e-06
2.03568e-07
1.36981e-06
8.99153e-08
1.31643e-06
6.09601e-07
1.12772e-06
-2.19654e-07
1.2961e-06
8.31582e-07
1.31389e-06
1.6625e-06
1.25058e-06
1.71934e-07
1.30448e-06
3.9032e-07
1.25344e-06
-1.38212e-07
1.26763e-06
4.66188e-08
1.28938e-06
-3.28607e-08
1.2964e-06
2.77499e-07
1.29138e-06
6.57721e-07
1.2739e-06
4.23985e-07
1.25428e-06
5.59682e-07
1.27386e-06
3.54883e-07
1.24455e-06
2.45806e-07
1.26382e-06
1.8226e-07
1.24936e-06
2.69019e-07
2.51279e-07
1.24224e-06
1.35461e-06
1.93057e-07
1.42742e-06
1.71086e-08
1.37903e-06
6.57994e-07
1.18777e-06
-2.8393e-08
1.34742e-06
6.71932e-07
1.40649e-06
1.60343e-06
1.32744e-06
2.50985e-07
1.37967e-06
3.38086e-07
1.32802e-06
-8.65593e-08
1.33875e-06
3.58861e-08
1.3528e-06
-4.69054e-08
1.37014e-06
2.60153e-07
1.3599e-06
6.67969e-07
1.34936e-06
4.34517e-07
1.32649e-06
5.82559e-07
1.33828e-06
3.43094e-07
1.31943e-06
2.64647e-07
1.32144e-06
1.80259e-07
1.32062e-06
2.69836e-07
2.64167e-07
1.30773e-06
1.41142e-06
1.89996e-07
1.4847e-06
-5.61809e-08
1.4452e-06
6.97496e-07
1.2599e-06
1.56909e-07
1.39778e-06
5.34056e-07
1.49671e-06
1.5045e-06
1.407e-06
3.40694e-07
1.44824e-06
2.96839e-07
1.40201e-06
-4.03214e-08
1.40534e-06
3.25564e-08
1.41288e-06
-5.4447e-08
1.43668e-06
2.36348e-07
1.4318e-06
6.72851e-07
1.42222e-06
4.44101e-07
1.40418e-06
6.00593e-07
1.40386e-06
3.43413e-07
1.39268e-06
2.7583e-07
1.38623e-06
1.86711e-07
1.38754e-06
2.68523e-07
2.74013e-07
1.3777e-06
1.46961e-06
1.96063e-07
1.54147e-06
-1.28039e-07
1.5144e-06
7.24563e-07
1.34587e-06
3.25438e-07
1.44915e-06
4.30776e-07
1.57233e-06
1.38133e-06
1.48683e-06
4.26192e-07
1.51066e-06
2.73006e-07
1.47494e-06
-4.59915e-09
1.4694e-06
3.809e-08
1.47128e-06
-5.63191e-08
1.49664e-06
2.10989e-07
1.50138e-06
6.68102e-07
1.49299e-06
4.52497e-07
1.48041e-06
6.13171e-07
1.47193e-06
3.51893e-07
1.46255e-06
2.85212e-07
1.45261e-06
1.96653e-07
1.45312e-06
2.68013e-07
2.82251e-07
1.44488e-06
1.53152e-06
2.10759e-07
1.59834e-06
-1.94859e-07
1.5859e-06
7.37005e-07
1.44339e-06
4.67944e-07
1.50495e-06
3.69219e-07
1.63104e-06
1.25524e-06
1.56638e-06
4.90851e-07
1.57338e-06
2.66005e-07
1.54777e-06
2.10083e-08
1.53527e-06
5.05892e-08
1.53131e-06
-5.23569e-08
1.55411e-06
1.88191e-07
1.56697e-06
6.55244e-07
1.56239e-06
4.57074e-07
1.55465e-06
6.2091e-07
1.54291e-06
3.63633e-07
1.53313e-06
2.94991e-07
1.52036e-06
2.09428e-07
1.51962e-06
2.68745e-07
2.90555e-07
1.51132e-06
1.59981e-06
2.31078e-07
1.65702e-06
-2.5207e-07
1.65929e-06
7.34738e-07
1.54753e-06
5.79698e-07
1.56878e-06
3.4797e-07
1.68126e-06
1.14276e-06
1.64607e-06
5.26039e-07
1.64198e-06
2.70099e-07
1.62197e-06
4.10194e-08
1.60542e-06
6.71375e-08
1.59575e-06
-4.26878e-08
1.61331e-06
1.70631e-07
1.63073e-06
6.37824e-07
1.63153e-06
4.56276e-07
1.62894e-06
6.23497e-07
1.61751e-06
3.75067e-07
1.60779e-06
3.04711e-07
1.59218e-06
2.25035e-07
1.58984e-06
2.71086e-07
2.99539e-07
1.58086e-06
1.67609e-06
2.52564e-07
1.71966e-06
-2.95644e-07
1.73436e-06
7.20036e-07
1.65344e-06
6.60627e-07
1.64304e-06
3.58364e-07
1.7348e-06
1.05101e-06
1.72653e-06
5.34307e-07
1.71783e-06
2.78793e-07
1.69926e-06
5.95961e-08
1.68076e-06
8.56317e-08
1.66623e-06
-2.81584e-08
1.67747e-06
1.59399e-07
1.69612e-06
6.19174e-07
1.70186e-06
4.50533e-07
1.70479e-06
6.20563e-07
1.69568e-06
3.8418e-07
1.68742e-06
3.12972e-07
1.66981e-06
2.42641e-07
1.66596e-06
2.74935e-07
3.09033e-07
1.65647e-06
1.76013e-06
2.71151e-07
1.78812e-06
-3.23627e-07
1.81106e-06
6.97094e-07
1.75787e-06
7.13816e-07
1.72803e-06
3.88208e-07
1.79974e-06
9.79294e-07
1.80864e-06
5.25408e-07
1.79943e-06
2.87999e-07
1.78095e-06
7.80734e-08
1.76194e-06
1.04644e-07
1.74374e-06
-9.95471e-09
1.74864e-06
1.54497e-07
1.76605e-06
6.01767e-07
1.77495e-06
4.41628e-07
1.78302e-06
6.12491e-07
1.77696e-06
3.90245e-07
1.77149e-06
3.18441e-07
1.75339e-06
2.60743e-07
1.74874e-06
2.7958e-07
3.18219e-07
1.73955e-06
1.85037e-06
2.84531e-07
1.86356e-06
-3.36823e-07
1.88976e-06
6.709e-07
1.85958e-06
7.44e-07
1.82216e-06
4.25622e-07
1.8782e-06
9.23251e-07
1.89359e-06
5.10026e-07
1.88502e-06
2.96565e-07
1.8674e-06
9.5689e-08
1.84929e-06
1.22756e-07
1.82885e-06
1.04924e-08
1.82806e-06
1.55278e-07
1.84272e-06
5.87111e-07
1.85264e-06
4.31707e-07
1.86474e-06
6.0039e-07
1.8615e-06
3.93492e-07
1.85952e-06
3.20414e-07
1.84244e-06
2.77832e-07
1.83787e-06
2.84141e-07
3.25902e-07
1.83019e-06
1.94507e-06
2.92304e-07
1.94649e-06
-3.38243e-07
1.9715e-06
6.45884e-07
1.95901e-06
7.56491e-07
1.92298e-06
4.61648e-07
1.96804e-06
8.78197e-07
1.98243e-06
4.95637e-07
1.97401e-06
3.04985e-07
1.95828e-06
1.11413e-07
1.9424e-06
1.38639e-07
1.92144e-06
3.14563e-08
1.91632e-06
1.60392e-07
1.92781e-06
5.75621e-07
1.93698e-06
4.22536e-07
1.95173e-06
5.85642e-07
1.95043e-06
3.94792e-07
1.9518e-06
3.19047e-07
1.93675e-06
2.92879e-07
1.93282e-06
2.88075e-07
3.30973e-07
1.92775e-06
2.04323e-06
2.95267e-07
2.03672e-06
-3.31732e-07
2.05765e-06
6.24947e-07
2.05775e-06
7.56394e-07
2.02819e-06
4.91213e-07
2.06573e-06
8.40649e-07
2.07577e-06
4.85596e-07
2.06679e-06
3.13966e-07
2.05328e-06
1.24929e-07
2.04035e-06
1.51566e-07
2.02057e-06
5.12312e-08
2.01315e-06
1.6782e-07
2.02215e-06
5.6662e-07
2.02953e-06
4.15153e-07
2.04567e-06
5.69502e-07
2.04517e-06
3.95288e-07
2.04898e-06
3.15242e-07
2.03642e-06
3.05443e-07
2.03313e-06
2.91358e-07
3.3281e-07
2.03129e-06
2.14469e-06
2.94582e-07
2.13364e-06
-3.20684e-07
2.14939e-06
6.09193e-07
2.15773e-06
7.48054e-07
2.13623e-06
5.12715e-07
2.1685e-06
8.08376e-07
2.17383e-06
4.80268e-07
2.16404e-06
3.2376e-07
2.15248e-06
1.36488e-07
2.14245e-06
1.61593e-07
2.12501e-06
6.86707e-08
2.11739e-06
1.75443e-07
2.12527e-06
5.58738e-07
2.13055e-06
4.09868e-07
2.14717e-06
5.52881e-07
2.14647e-06
3.95991e-07
2.15147e-06
3.10247e-07
2.14142e-06
3.15491e-07
2.13844e-06
2.94337e-07
3.31417e-07
2.13983e-06
2.24976e-06
2.91312e-07
2.2365e-06
-3.07425e-07
2.24742e-06
5.98269e-07
2.26068e-06
7.34796e-07
2.24657e-06
5.26827e-07
2.27492e-06
7.8002e-07
2.27661e-06
4.78585e-07
2.26623e-06
3.34136e-07
2.25632e-06
1.46403e-07
2.24862e-06
1.69292e-07
2.23383e-06
8.34567e-08
2.2275e-06
1.81778e-07
2.23562e-06
5.50613e-07
2.23899e-06
4.06502e-07
2.25554e-06
5.36323e-07
2.25407e-06
3.97466e-07
2.25909e-06
3.0523e-07
2.25145e-06
3.23132e-07
2.24835e-06
2.97434e-07
3.27301e-07
2.25246e-06
2.35886e-06
2.86323e-07
2.34472e-06
-2.93275e-07
2.352e-06
5.90981e-07
2.36787e-06
7.18931e-07
2.3595e-06
5.35194e-07
2.38469e-06
7.54837e-07
2.38414e-06
4.79129e-07
2.3737e-06
3.4458e-07
2.36532e-06
1.5478e-07
2.35921e-06
1.75406e-07
2.34671e-06
9.59594e-08
2.34218e-06
1.86299e-07
2.3514e-06
5.41397e-07
2.35324e-06
4.04662e-07
2.36945e-06
5.20117e-07
2.36715e-06
3.99765e-07
2.37136e-06
3.01013e-07
2.36602e-06
3.28479e-07
2.36255e-06
3.00905e-07
3.21239e-07
2.36861e-06
2.47239e-06
2.80326e-07
2.458e-06
-2.78886e-07
2.46316e-06
5.85828e-07
2.48013e-06
7.01955e-07
2.47578e-06
5.39549e-07
2.49812e-06
7.32498e-07
2.49663e-06
4.80614e-07
2.48671e-06
3.54504e-07
2.4799e-06
1.61587e-07
2.47465e-06
1.80654e-07
2.4637e-06
1.06913e-07
2.46076e-06
1.89234e-07
2.4713e-06
5.30856e-07
2.47204e-06
4.03924e-07
2.48776e-06
5.04405e-07
2.48496e-06
4.02565e-07
2.48794e-06
2.98026e-07
2.48477e-06
3.31652e-07
2.48091e-06
3.04767e-07
3.14071e-07
2.48807e-06
2.59072e-06
2.73896e-07
2.57636e-06
-2.64518e-07
2.58087e-06
5.81312e-07
2.59798e-06
6.84847e-07
2.59617e-06
5.41361e-07
2.61584e-06
7.1283e-07
2.61445e-06
4.82002e-07
2.60548e-06
3.63467e-07
2.60025e-06
1.66823e-07
2.59524e-06
1.85658e-07
2.58501e-06
1.17144e-07
2.5831e-06
1.91148e-07
2.59477e-06
5.19184e-07
2.59482e-06
4.03878e-07
2.60998e-06
4.89239e-07
2.60716e-06
4.0539e-07
2.60883e-06
2.96358e-07
2.60764e-06
3.32843e-07
2.60356e-06
3.08843e-07
3.0659e-07
2.61104e-06
2.7143e-06
2.67428e-07
2.69995e-06
-2.50168e-07
2.70515e-06
5.76112e-07
2.7217e-06
6.68296e-07
2.72128e-06
5.41777e-07
2.73855e-06
6.95563e-07
2.73805e-06
4.82501e-07
2.73017e-06
3.71344e-07
2.72639e-06
1.70603e-07
2.72119e-06
1.90862e-07
2.71093e-06
1.27399e-07
2.70946e-06
1.92624e-07
2.72185e-06
5.06789e-07
2.72158e-06
4.04145e-07
2.73621e-06
4.74609e-07
2.73383e-06
4.07773e-07
2.73433e-06
2.95863e-07
2.73485e-06
3.32321e-07
2.73081e-06
3.12878e-07
2.99452e-07
2.73795e-06
2.8436e-06
2.61097e-07
2.82907e-06
-2.35642e-07
2.83598e-06
5.69209e-07
2.85147e-06
6.52805e-07
2.85164e-06
5.41601e-07
2.86693e-06
6.80277e-07
2.86787e-06
4.81566e-07
2.86086e-06
3.78346e-07
2.85832e-06
1.73148e-07
2.85273e-06
1.96452e-07
2.84187e-06
1.38256e-07
2.84039e-06
1.94109e-07
2.85303e-06
4.94145e-07
2.85278e-06
4.04396e-07
2.86693e-06
4.60461e-07
2.86532e-06
4.09379e-07
2.86493e-06
2.96254e-07
2.86688e-06
3.30374e-07
2.86313e-06
3.16627e-07
2.93156e-07
2.86943e-06
2.97911e-06
2.54883e-07
2.96411e-06
-2.2064e-07
2.97335e-06
5.59967e-07
2.98746e-06
6.38699e-07
2.98782e-06
5.41237e-07
3.00157e-06
6.66522e-07
3.00424e-06
4.789e-07
2.99771e-06
3.84879e-07
2.99609e-06
1.74763e-07
2.99021e-06
2.02336e-07
2.9784e-06
1.50062e-07
2.97664e-06
1.95866e-07
2.98912e-06
4.81666e-07
2.98909e-06
4.04432e-07
3.00284e-06
4.46706e-07
3.00218e-06
4.10042e-07
3.00117e-06
2.9726e-07
3.00434e-06
3.27203e-07
3.00109e-06
3.19878e-07
2.88047e-07
3.0062e-06
3.12125e-06
2.48641e-07
3.10545e-06
-2.04841e-07
3.11731e-06
5.4811e-07
3.12986e-06
6.26146e-07
3.13041e-06
5.40685e-07
3.14297e-06
6.53963e-07
3.14743e-06
4.74445e-07
3.14096e-06
3.91345e-07
3.13991e-06
1.75808e-07
3.13402e-06
2.08228e-07
3.12113e-06
1.6295e-07
3.11903e-06
1.97968e-07
3.13107e-06
4.69628e-07
3.1313e-06
4.04204e-07
3.14473e-06
4.33271e-07
3.14508e-06
4.09699e-07
3.14359e-06
2.98741e-07
3.14788e-06
3.22915e-07
3.14533e-06
3.22433e-07
2.8433e-07
3.14904e-06
3.27038e-06
2.42175e-07
3.2535e-06
-1.87966e-07
3.268e-06
5.33607e-07
3.27895e-06
6.15203e-07
3.27996e-06
5.39672e-07
3.29151e-06
6.42407e-07
3.29762e-06
4.68338e-07
3.29098e-06
3.97988e-07
3.29011e-06
1.7668e-07
3.28458e-06
2.13759e-07
3.27064e-06
1.76889e-07
3.26825e-06
2.00353e-07
3.27977e-06
4.58111e-07
3.28016e-06
4.03817e-07
3.29333e-06
4.20098e-07
3.29469e-06
4.08336e-07
3.29272e-06
3.00718e-07
3.29803e-06
3.17602e-07
3.29645e-06
3.24018e-07
2.82126e-07
3.29865e-06
3.42682e-06
2.35284e-07
3.40865e-06
-1.69789e-07
3.4257e-06
5.16552e-07
3.43505e-06
6.05856e-07
3.43688e-06
5.37842e-07
3.44753e-06
6.31751e-07
3.45503e-06
4.60847e-07
3.44816e-06
4.0485e-07
3.44706e-06
1.77782e-07
3.44224e-06
2.18584e-07
3.42738e-06
1.91744e-07
3.42481e-06
2.02927e-07
3.43592e-06
4.46996e-07
3.43629e-06
4.03446e-07
3.44916e-06
4.0723e-07
3.45164e-06
4.05857e-07
3.44901e-06
3.03346e-07
3.45518e-06
3.11433e-07
3.45492e-06
3.24277e-07
2.81408e-07
3.45564e-06
3.59092e-06
2.27775e-07
3.57127e-06
-1.50139e-07
3.59073e-06
4.97094e-07
3.59854e-06
5.98043e-07
3.60146e-06
5.34917e-07
3.61132e-06
6.21894e-07
3.61986e-06
4.52312e-07
3.61292e-06
4.11787e-07
3.6112e-06
1.795e-07
3.60736e-06
2.22425e-07
3.59177e-06
2.07333e-07
3.58904e-06
2.05654e-07
3.60002e-06
4.36017e-07
3.60018e-06
4.0329e-07
3.61262e-06
3.9479e-07
3.61637e-06
4.02105e-07
3.61297e-06
3.06745e-07
3.6196e-06
3.04801e-07
3.62109e-06
3.22786e-07
2.81947e-07
3.62056e-06
3.76301e-06
2.19474e-07
3.74175e-06
-1.28887e-07
3.76343e-06
4.75417e-07
3.76983e-06
5.91646e-07
3.77396e-06
5.30783e-07
3.78317e-06
6.1269e-07
3.79238e-06
4.43104e-07
3.78564e-06
4.18527e-07
3.78296e-06
1.82174e-07
3.78029e-06
2.25094e-07
3.7642e-06
2.23422e-07
3.76123e-06
2.08631e-07
3.77243e-06
4.24817e-07
3.77219e-06
4.03528e-07
3.784e-06
3.82978e-07
3.78918e-06
3.96925e-07
3.78507e-06
3.10852e-07
3.79156e-06
2.98311e-07
3.79513e-06
3.19221e-07
2.83212e-07
3.79386e-06
3.94344e-06
2.10226e-07
3.92051e-06
-1.05964e-07
3.94417e-06
4.51758e-07
3.94934e-06
5.86481e-07
3.95464e-06
5.25481e-07
3.96339e-06
6.03935e-07
3.9729e-06
4.336e-07
3.9667e-06
4.24728e-07
3.96279e-06
1.86081e-07
3.96139e-06
2.26493e-07
3.94508e-06
2.39733e-07
3.94164e-06
2.12072e-07
3.9534e-06
4.13054e-07
3.95268e-06
4.0425e-07
3.96357e-06
3.72091e-07
3.97031e-06
3.90179e-07
3.96578e-06
3.15384e-07
3.9714e-06
2.92688e-07
3.97713e-06
3.13499e-07
2.84407e-07
3.97593e-06
4.13257e-06
1.99909e-07
4.10798e-06
-8.13763e-08
4.13331e-06
4.26423e-07
4.1375e-06
5.82296e-07
4.1438e-06
5.19176e-07
4.15236e-06
5.95375e-07
4.16179e-06
4.24173e-07
4.15648e-06
4.3004e-07
4.15116e-06
1.91396e-07
4.15102e-06
2.26637e-07
4.13484e-06
2.55911e-07
4.13063e-06
2.1628e-07
4.14322e-06
4.00472e-07
4.14207e-06
4.05399e-07
4.15166e-06
3.62496e-07
4.15996e-06
3.81879e-07
4.1555e-06
3.19844e-07
4.15963e-06
2.88564e-07
4.16716e-06
3.05968e-07
2.84555e-07
4.16701e-06
4.33076e-06
1.88451e-07
4.3046e-06
-5.52161e-08
4.33124e-06
3.99779e-07
4.33475e-06
5.78788e-07
4.34183e-06
5.12096e-07
4.35048e-06
5.86726e-07
4.35948e-06
4.15179e-07
4.35536e-06
4.34153e-07
4.34858e-06
1.98178e-07
4.34956e-06
2.25661e-07
4.33392e-06
2.71548e-07
4.32864e-06
2.21564e-07
4.34211e-06
3.86999e-07
4.3408e-06
4.06706e-07
4.34866e-06
3.54642e-07
4.35835e-06
3.72189e-07
4.35454e-06
3.2365e-07
4.3569e-06
2.86207e-07
4.36543e-06
2.97434e-07
2.82832e-07
4.36715e-06
4.53838e-06
1.75844e-07
4.51083e-06
-2.76669e-08
4.53839e-06
3.72225e-07
4.54155e-06
5.75622e-07
4.54913e-06
5.04513e-07
4.55818e-06
5.77676e-07
4.56641e-06
4.06948e-07
4.56373e-06
4.36832e-07
4.55556e-06
2.06355e-07
4.5574e-06
2.23813e-07
4.54275e-06
2.86203e-07
4.53611e-06
2.28207e-07
4.55038e-06
3.72731e-07
4.54932e-06
4.07759e-07
4.55497e-06
3.49e-07
4.56579e-06
3.61361e-07
4.5632e-06
3.26244e-07
4.56385e-06
2.8556e-07
4.57244e-06
2.88839e-07
2.78873e-07
4.5764e-06
4.75581e-06
1.62145e-07
4.72714e-06
1.01059e-09
4.75519e-06
3.44175e-07
4.75837e-06
5.72436e-07
4.76615e-06
4.96732e-07
4.77593e-06
5.67897e-07
4.78311e-06
3.99773e-07
4.78199e-06
4.3795e-07
4.77262e-06
2.15728e-07
4.775e-06
2.21434e-07
4.76174e-06
2.99455e-07
4.75356e-06
2.36387e-07
4.76835e-06
3.57946e-07
4.76805e-06
4.08054e-07
4.77125e-06
3.45804e-07
4.78271e-06
3.49897e-07
4.78185e-06
3.27105e-07
4.78113e-06
2.86286e-07
4.78891e-06
2.81057e-07
2.7292e-07
4.79486e-06
4.98347e-06
1.47473e-07
4.95399e-06
3.04949e-08
4.98211e-06
3.16052e-07
4.98572e-06
5.68822e-07
4.99335e-06
4.89106e-07
5.00419e-06
5.57057e-07
5.0101e-06
3.93861e-07
5.01051e-06
4.37541e-07
5.00027e-06
2.25968e-07
5.00281e-06
2.18897e-07
4.99129e-06
3.10968e-07
4.98156e-06
2.4612e-07
4.99642e-06
3.43086e-07
4.99744e-06
4.07037e-07
4.99816e-06
3.45081e-07
5.00964e-06
3.38422e-07
5.01085e-06
3.25888e-07
5.00927e-06
2.87865e-07
5.01572e-06
2.74614e-07
2.65776e-07
5.02286e-06
5.2218e-06
1.31991e-07
5.19187e-06
6.04215e-08
5.21961e-06
2.88314e-07
5.22414e-06
5.64296e-07
5.23121e-06
4.82029e-07
5.2434e-06
5.44868e-07
5.24797e-06
3.89297e-07
5.24969e-06
4.3582e-07
5.23901e-06
2.36644e-07
5.24135e-06
2.16561e-07
5.23182e-06
3.20498e-07
5.22065e-06
2.57289e-07
5.23504e-06
3.28691e-07
5.23792e-06
4.04164e-07
5.23636e-06
3.46639e-07
5.24712e-06
3.27659e-07
5.25061e-06
3.22395e-07
5.24879e-06
2.89687e-07
5.25362e-06
2.69786e-07
2.58332e-07
5.26106e-06
5.47129e-06
1.15894e-07
5.44132e-06
9.03882e-08
5.46813e-06
2.61501e-07
5.47418e-06
5.58244e-07
5.48025e-06
4.75964e-07
5.49401e-06
5.31106e-07
5.49731e-06
3.85995e-07
5.49998e-06
4.33152e-07
5.48929e-06
2.47331e-07
5.49117e-06
2.14687e-07
5.48375e-06
3.27913e-07
5.47138e-06
2.69662e-07
5.48475e-06
3.15318e-07
5.48993e-06
3.98986e-07
5.48655e-06
3.50023e-07
5.49581e-06
3.18395e-07
5.5016e-06
3.16604e-07
5.5001e-06
2.91186e-07
5.50334e-06
2.66552e-07
2.51273e-07
5.5104e-06
5.73246e-06
9.93924e-08
5.70289e-06
1.19957e-07
5.72811e-06
2.36279e-07
5.73647e-06
5.49886e-07
5.74102e-06
4.71416e-07
5.75646e-06
5.15667e-07
5.75885e-06
3.83604e-07
5.76193e-06
4.3007e-07
5.75158e-06
2.57682e-07
5.75286e-06
2.13403e-07
5.74757e-06
3.33204e-07
5.73433e-06
2.82904e-07
5.74613e-06
3.0352e-07
5.75388e-06
3.9123e-07
5.74938e-06
3.54528e-07
5.75642e-06
3.11354e-07
5.76425e-06
3.08769e-07
5.76369e-06
2.9175e-07
5.76551e-06
2.64736e-07
2.45018e-07
5.77176e-06
6.00587e-06
8.27147e-08
5.97719e-06
1.4864e-07
5.99997e-06
2.13494e-07
6.01161e-06
5.38246e-07
6.01414e-06
4.68889e-07
6.03117e-06
4.98632e-07
6.03324e-06
3.81535e-07
6.03616e-06
4.2715e-07
6.02634e-06
2.67502e-07
6.02704e-06
2.1271e-07
6.0238e-06
3.36444e-07
6.01007e-06
2.96633e-07
6.01983e-06
2.93754e-07
6.03015e-06
3.80915e-07
6.02546e-06
3.59216e-07
6.02976e-06
3.07061e-07
6.03894e-06
2.99589e-07
6.04007e-06
2.90615e-07
6.04074e-06
2.6407e-07
2.39872e-07
6.04588e-06
6.2921e-06
6.61037e-08
6.26485e-06
1.7589e-07
6.28418e-06
1.94168e-07
6.30025e-06
5.22175e-07
6.30028e-06
4.68854e-07
6.31863e-06
4.80288e-07
6.32109e-06
3.79076e-07
6.32338e-06
4.24858e-07
6.3141e-06
2.76777e-07
6.3143e-06
2.12515e-07
6.313e-06
3.37736e-07
6.2992e-06
3.10433e-07
6.30652e-06
2.86436e-07
6.31916e-06
3.68279e-07
6.31531e-06
3.63067e-07
6.3167e-06
3.05667e-07
6.32616e-06
2.90126e-07
6.32965e-06
2.87126e-07
6.32964e-06
2.64078e-07
2.36055e-07
6.33346e-06
6.59175e-06
4.98208e-08
6.56655e-06
2.01096e-07
6.5814e-06
1.79317e-07
6.60301e-06
5.00566e-07
6.60023e-06
4.71632e-07
6.61919e-06
4.61327e-07
6.62288e-06
3.75383e-07
6.62432e-06
4.23415e-07
6.61543e-06
2.8567e-07
6.61523e-06
2.12721e-07
6.61581e-06
3.37154e-07
6.60237e-06
3.23866e-07
6.60691e-06
2.819e-07
6.6214e-06
3.53786e-07
6.61935e-06
3.65125e-07
6.61801e-06
3.06999e-07
6.62671e-06
2.8143e-07
6.63274e-06
2.81093e-07
6.63288e-06
2.63938e-07
2.33725e-07
6.63521e-06
6.90547e-06
3.41432e-08
6.88296e-06
2.23609e-07
6.89283e-06
1.69444e-07
6.92028e-06
4.73113e-07
6.91502e-06
4.76895e-07
6.93334e-06
4.43002e-07
6.93907e-06
3.69652e-07
6.9398e-06
4.22692e-07
6.93096e-06
2.94504e-07
6.93043e-06
2.13255e-07
6.9328e-06
3.3478e-07
6.92022e-06
3.36449e-07
6.9218e-06
2.80322e-07
6.93742e-06
3.38163e-07
6.93791e-06
3.64632e-07
6.93451e-06
3.10407e-07
6.94149e-06
2.74449e-07
6.94964e-06
2.72937e-07
6.95097e-06
2.62608e-07
2.32719e-07
6.95198e-06
7.23393e-06
1.93539e-08
7.21475e-06
2.4278e-07
7.21956e-06
1.64636e-07
7.25181e-06
4.40863e-07
7.24573e-06
4.82975e-07
7.26188e-06
4.26857e-07
7.27009e-06
3.61439e-07
7.27057e-06
4.2221e-07
7.26143e-06
3.03651e-07
7.2605e-06
2.14185e-07
7.26461e-06
3.30666e-07
7.25337e-06
3.47692e-07
7.25201e-06
2.81675e-07
7.2678e-06
3.22375e-07
7.27138e-06
3.61057e-07
7.26684e-06
3.14945e-07
7.27145e-06
2.69834e-07
7.28087e-06
2.63524e-07
7.2842e-06
2.59277e-07
2.32332e-07
7.28458e-06
7.57784e-06
5.73917e-09
7.56263e-06
2.57995e-07
7.56255e-06
1.64714e-07
7.59791e-06
4.055e-07
7.59309e-06
4.87799e-07
7.6057e-06
4.14248e-07
7.61642e-06
3.50718e-07
7.61739e-06
4.21237e-07
7.6076e-06
3.13436e-07
7.60605e-06
2.15742e-07
7.61182e-06
3.24891e-07
7.60239e-06
3.57125e-07
7.59835e-06
2.85714e-07
7.61327e-06
3.07451e-07
7.62005e-06
3.54281e-07
7.61557e-06
3.19423e-07
7.61759e-06
2.67814e-07
7.6272e-06
2.53918e-07
7.6328e-06
2.53674e-07
2.31625e-07
7.63351e-06
7.93798e-06
-6.42804e-09
7.92727e-06
2.68701e-07
7.92268e-06
1.69306e-07
7.95929e-06
3.68886e-07
7.95762e-06
4.89472e-07
7.9658e-06
4.06066e-07
7.97854e-06
3.37977e-07
7.9809e-06
4.18885e-07
7.97033e-06
3.24003e-07
7.96774e-06
2.18333e-07
7.97502e-06
3.17612e-07
7.96783e-06
3.64311e-07
7.9616e-06
2.9195e-07
7.97461e-06
2.94441e-07
7.98444e-06
3.44448e-07
7.98116e-06
3.227e-07
7.98079e-06
2.68183e-07
7.98962e-06
2.4509e-07
7.99721e-06
2.46088e-07
2.29772e-07
7.99906e-06
8.31515e-06
-1.68957e-08
8.30941e-06
2.74442e-07
8.30083e-06
1.77887e-07
8.33679e-06
3.32925e-07
8.33991e-06
4.86346e-07
8.34325e-06
4.02728e-07
8.35716e-06
3.24073e-07
8.36164e-06
4.14406e-07
8.35044e-06
3.35194e-07
8.34627e-06
2.2251e-07
8.35472e-06
3.09159e-07
8.35021e-06
3.68828e-07
8.34242e-06
2.99733e-07
8.35279e-06
2.84071e-07
8.36508e-06
3.32162e-07
8.36405e-06
3.23726e-07
8.36199e-06
2.7024e-07
8.36919e-06
2.37896e-07
8.37811e-06
2.37168e-07
2.26302e-07
8.38158e-06
8.71022e-06
-2.54494e-08
8.70978e-06
2.7488e-07
8.69782e-06
1.89845e-07
8.73129e-06
2.99455e-07
8.7405e-06
4.7714e-07
8.73915e-06
4.04074e-07
8.75286e-06
3.10358e-07
8.76013e-06
4.07137e-07
8.74875e-06
3.46575e-07
8.74234e-06
2.28921e-07
8.75148e-06
3.00024e-07
8.75003e-06
3.70278e-07
8.7416e-06
3.08154e-07
8.74896e-06
2.76712e-07
8.76282e-06
3.18307e-07
8.76473e-06
3.21812e-07
8.76204e-06
2.72934e-07
8.76705e-06
2.32882e-07
8.77648e-06
2.27741e-07
2.21117e-07
8.78166e-06
9.12409e-06
-3.19199e-08
9.12896e-06
2.70014e-07
9.11449e-06
2.04307e-07
9.14377e-06
2.70176e-07
9.15972e-06
4.61196e-07
9.15462e-06
4.09174e-07
9.16646e-06
2.98516e-07
9.17681e-06
3.96787e-07
9.16609e-06
3.5729e-07
9.15698e-06
2.38035e-07
9.16616e-06
2.90844e-07
9.16797e-06
3.68466e-07
9.15998e-06
3.16142e-07
9.16444e-06
2.72258e-07
9.17868e-06
3.04067e-07
9.1838e-06
3.16689e-07
9.18162e-06
2.75114e-07
9.18436e-06
2.30145e-07
9.19339e-06
2.18713e-07
2.14367e-07
9.20014e-06
9.55773e-06
-3.6194e-08
9.56757e-06
2.60179e-07
9.55169e-06
2.20191e-07
9.5754e-06
2.46463e-07
9.59763e-06
4.38962e-07
9.59079e-06
4.16013e-07
9.5988e-06
2.90514e-07
9.61205e-06
3.83532e-07
9.60331e-06
3.66029e-07
9.59174e-06
2.49604e-07
9.60012e-06
2.82464e-07
9.6051e-06
3.63485e-07
9.59857e-06
3.22675e-07
9.60041e-06
2.70416e-07
9.61397e-06
2.90506e-07
9.62201e-06
3.08649e-07
9.62124e-06
2.75887e-07
9.62226e-06
2.2912e-07
9.62995e-06
2.11023e-07
2.06428e-07
9.63789e-06
1.00122e-05
-3.82255e-08
1.00264e-05
2.45942e-07
1.00104e-05
2.36245e-07
1.00277e-05
2.29158e-07
1.00551e-05
4.11557e-07
1.00486e-05
4.22424e-07
1.00511e-05
2.88105e-07
1.00666e-05
3.68007e-07
1.00614e-05
3.71179e-07
1.00482e-05
2.6281e-07
1.00547e-05
2.76021e-07
1.00625e-05
3.55616e-07
1.00581e-05
3.27065e-07
1.0058e-05
2.70525e-07
1.00701e-05
2.7844e-07
1.00803e-05
2.98434e-07
1.00815e-05
2.74748e-07
1.00817e-05
2.28873e-07
1.00875e-05
2.05207e-07
1.98084e-07
1.00959e-05
1.04885e-05
-3.80955e-08
1.05063e-05
2.28156e-07
1.04914e-05
2.51097e-07
1.0502e-05
2.18593e-07
1.05331e-05
3.80482e-07
1.05293e-05
4.26163e-07
1.0526e-05
2.91465e-07
1.05418e-05
3.52208e-07
1.05411e-05
3.71868e-07
1.05277e-05
2.76212e-07
1.05314e-05
2.72338e-07
1.05414e-05
3.45603e-07
1.05396e-05
3.28836e-07
1.05384e-05
2.71786e-07
1.05484e-05
2.6837e-07
1.05599e-05
2.86917e-07
1.05631e-05
2.71574e-07
1.05634e-05
2.28591e-07
1.05675e-05
2.01111e-07
1.90274e-07
1.05753e-05
1.09879e-05
-3.60177e-08
1.10082e-05
2.07912e-07
1.09959e-05
2.63332e-07
1.09999e-05
2.14685e-07
1.10328e-05
3.4756e-07
1.10336e-05
4.253e-07
1.10259e-05
2.9923e-07
1.10395e-05
3.38598e-07
1.1043e-05
3.68331e-07
1.10309e-05
2.88296e-07
1.10319e-05
2.71344e-07
1.10428e-05
3.34699e-07
1.10437e-05
3.27937e-07
1.10422e-05
2.7332e-07
1.10502e-05
2.60373e-07
1.10621e-05
2.74996e-07
1.10672e-05
2.66446e-07
1.10681e-05
2.27768e-07
1.10711e-05
1.98108e-07
1.83665e-07
1.10777e-05
1.15117e-05
-3.23311e-08
1.15331e-05
1.86486e-07
1.15248e-05
2.71612e-07
1.15227e-05
2.16848e-07
1.15553e-05
3.14967e-07
1.15622e-05
4.18366e-07
1.15515e-05
3.09882e-07
1.15615e-05
3.28638e-07
1.15683e-05
3.61532e-07
1.15586e-05
2.9796e-07
1.15575e-05
2.72477e-07
1.15683e-05
3.23944e-07
1.15715e-05
3.2468e-07
1.15704e-05
2.74413e-07
1.15766e-05
2.5417e-07
1.15882e-05
2.63424e-07
1.1595e-05
2.59626e-07
1.15966e-05
2.26157e-07
1.15991e-05
1.95604e-07
1.78294e-07
1.16045e-05
1.2061e-05
-2.75142e-08
1.20823e-05
1.65176e-07
1.2079e-05
2.74951e-07
1.2072e-05
2.23864e-07
1.21017e-05
2.85251e-07
1.21151e-05
4.04975e-07
1.21038e-05
3.2115e-07
1.21095e-05
3.22971e-07
1.21181e-05
3.52886e-07
1.21115e-05
3.0461e-07
1.2109e-05
2.74887e-07
1.21189e-05
3.14071e-07
1.21241e-05
3.1949e-07
1.21239e-05
2.74618e-07
1.21288e-05
2.49322e-07
1.21395e-05
2.52661e-07
1.21476e-05
2.51531e-07
1.21502e-05
2.23552e-07
1.21525e-05
1.93288e-07
1.73763e-07
1.21571e-05
1.26372e-05
-2.20927e-08
1.26572e-05
1.45181e-07
1.26593e-05
2.72836e-07
1.2649e-05
2.34157e-07
1.26736e-05
2.60636e-07
1.26928e-05
3.85738e-07
1.26832e-05
3.30748e-07
1.26848e-05
3.21394e-07
1.26938e-05
3.43941e-07
1.26903e-05
3.08069e-07
1.26876e-05
2.77544e-07
1.26963e-05
3.05449e-07
1.27029e-05
3.12887e-07
1.27038e-05
2.73693e-07
1.27077e-05
2.45394e-07
1.27175e-05
2.42904e-07
1.27263e-05
2.42683e-07
1.27301e-05
2.19812e-07
1.27324e-05
1.90968e-07
1.69681e-07
1.27365e-05
1.32414e-05
-1.6564e-08
1.32591e-05
1.27496e-07
1.32667e-05
2.65206e-07
1.32549e-05
2.46002e-07
1.3273e-05
2.4248e-07
1.32964e-05
3.62372e-07
1.32906e-05
3.36533e-07
1.32888e-05
3.23238e-07
1.32968e-05
3.35923e-07
1.32962e-05
3.08625e-07
1.32942e-05
2.79625e-07
1.33016e-05
2.97993e-07
1.33091e-05
3.05436e-07
1.33113e-05
2.71492e-07
1.33147e-05
2.41955e-07
1.33234e-05
2.34219e-07
1.33326e-05
2.33499e-07
1.33374e-05
2.14938e-07
1.33399e-05
1.88483e-07
1.65876e-07
1.33437e-05
1.3875e-05
-1.13806e-08
1.389e-05
1.12499e-07
1.39022e-05
2.53008e-07
1.38903e-05
2.57923e-07
1.39018e-05
2.30984e-07
1.39272e-05
3.36911e-07
1.39265e-05
3.37295e-07
1.39225e-05
3.27194e-07
1.3929e-05
3.29442e-07
1.39306e-05
3.06954e-07
1.39297e-05
2.80556e-07
1.39363e-05
2.91394e-07
1.39441e-05
2.97664e-07
1.39474e-05
2.68179e-07
1.39508e-05
2.38568e-07
1.39584e-05
2.26557e-07
1.39676e-05
2.24347e-07
1.39735e-05
2.0899e-07
1.39764e-05
1.85614e-07
1.62349e-07
1.39799e-05
1.45392e-05
-6.94271e-09
1.45509e-05
1.00862e-07
1.45654e-05
2.38464e-07
1.45558e-05
2.67525e-07
1.45618e-05
2.25029e-07
1.45868e-05
3.11911e-07
1.45908e-05
3.33265e-07
1.45868e-05
3.31164e-07
1.45918e-05
3.24489e-07
1.4595e-05
3.0375e-07
1.45956e-05
2.79955e-07
1.46018e-05
2.85198e-07
1.46097e-05
2.89767e-07
1.46139e-05
2.63977e-07
1.46174e-05
2.34996e-07
1.46243e-05
2.19678e-07
1.46331e-05
2.15547e-07
1.46399e-05
2.0218e-07
1.46434e-05
1.82123e-07
1.5909e-07
1.46467e-05
1.52353e-05
-3.37053e-09
1.52384e-05
9.78098e-08
1.52554e-05
2.21391e-07
1.52524e-05
2.70514e-07
1.52555e-05
2.21972e-07
1.52764e-05
2.90991e-07
1.52846e-05
3.25051e-07
1.5283e-05
3.3282e-07
1.52868e-05
3.2068e-07
1.52907e-05
2.99821e-07
1.52928e-05
2.77877e-07
1.52989e-05
2.79048e-07
1.5307e-05
2.81758e-07
1.53119e-05
2.59032e-07
1.53157e-05
2.31244e-07
1.53221e-05
2.13205e-07
1.53304e-05
2.07252e-07
1.53378e-05
1.94824e-07
1.53421e-05
1.77817e-07
1.55879e-07
1.53453e-05
1.59653e-05
-1.31401e-09
1.59792e-05
8.39041e-08
1.60039e-05
1.96683e-07
1.59971e-05
2.77349e-07
1.59868e-05
2.32226e-07
1.59978e-05
2.8004e-07
1.60097e-05
3.13114e-07
1.60121e-05
3.3039e-07
1.60157e-05
3.17138e-07
1.60199e-05
2.95586e-07
1.60233e-05
2.7449e-07
1.60297e-05
2.72655e-07
1.60378e-05
2.73669e-07
1.60434e-05
2.5341e-07
1.60473e-05
2.27304e-07
1.60534e-05
2.07149e-07
1.60612e-05
1.99404e-07
1.60687e-05
1.8734e-07
1.60738e-05
1.72682e-07
1.52493e-07
1.60772e-05
1.67287e-05
6.29498e-10
1.6722e-05
9.0593e-08
1.67388e-05
1.79885e-07
1.67454e-05
2.70682e-07
1.67442e-05
2.33503e-07
1.67563e-05
2.67901e-07
1.67707e-05
2.98742e-07
1.67761e-05
3.2492e-07
1.67799e-05
3.13372e-07
1.67841e-05
2.91424e-07
1.67882e-05
2.7036e-07
1.67951e-05
2.65792e-07
1.68033e-05
2.65463e-07
1.68096e-05
2.47085e-07
1.6814e-05
2.22903e-07
1.68197e-05
2.01468e-07
1.68272e-05
1.91864e-07
1.68346e-05
1.79918e-07
1.68404e-05
1.66901e-07
1.48656e-07
1.68443e-05
1.75296e-05
1.35508e-09
1.75356e-05
8.4636e-08
1.75479e-05
1.67564e-07
1.75474e-05
2.71205e-07
1.7544e-05
2.36935e-07
1.75526e-05
2.59305e-07
1.75674e-05
2.83855e-07
1.75759e-05
3.16468e-07
1.75806e-05
3.08617e-07
1.7585e-05
2.87088e-07
1.75896e-05
2.65695e-07
1.75969e-05
2.58544e-07
1.76054e-05
2.56934e-07
1.76123e-05
2.4023e-07
1.76172e-05
2.1798e-07
1.76226e-05
1.96032e-07
1.76297e-05
1.84801e-07
1.76371e-05
1.72487e-07
1.76432e-05
1.60866e-07
1.44169e-07
1.76477e-05
1.83676e-05
2.10592e-09
1.8361e-05
9.11893e-08
1.83733e-05
1.55268e-07
1.83837e-05
2.60796e-07
1.83835e-05
2.37176e-07
1.83896e-05
2.53212e-07
1.84029e-05
2.70605e-07
1.84135e-05
3.05802e-07
1.84197e-05
3.02397e-07
1.84243e-05
2.8257e-07
1.84292e-05
2.60787e-07
1.84367e-05
2.51046e-07
1.84455e-05
2.48063e-07
1.84529e-05
2.32822e-07
1.84584e-05
2.1251e-07
1.8464e-05
1.90476e-07
1.84705e-05
1.78233e-07
1.84779e-05
1.65156e-07
1.84841e-05
1.54653e-07
1.39139e-07
1.84891e-05
1.92461e-05
2.36664e-09
1.92417e-05
9.56159e-08
1.92498e-05
1.47204e-07
1.92612e-05
2.49395e-07
1.92631e-05
2.35248e-07
1.92675e-05
2.48849e-07
1.92787e-05
2.59391e-07
1.92906e-05
2.93857e-07
1.92986e-05
2.94456e-07
1.93038e-05
2.77338e-07
1.9309e-05
2.55539e-07
1.93166e-05
2.43442e-07
1.93257e-05
2.39012e-07
1.93338e-05
2.24738e-07
1.93397e-05
2.06575e-07
1.93455e-05
1.84688e-07
1.93518e-05
1.71899e-07
1.93588e-05
1.58171e-07
1.93653e-05
1.48127e-07
1.33838e-07
1.93706e-05
2.01664e-05
2.34491e-09