/*--------------------------------*- C++ -*----------------------------------*\
| =========                 |                                                 |
| \\      /  F ield         | OpenFOAM: The Open Source CFD Toolbox           |
|  \\    /   O peration     | Version:  v2012                                 |
|   \\  /    A nd           | Website:  www.openfoam.com                      |
|    \\/     M anipulation  |                                                 |
\*---------------------------------------------------------------------------*/
FoamFile
{
    version     2.0;
    format      ascii;
    class       volVectorField;
    location    "10.9";
    object      U;
}
// * * * * * * * * * * * * * * * * * * * * * * * * * * * * * * * * * * * * * //

dimensions      [0 1 -1 0 0 0 0];


internalField   nonuniform List<vector> 
9600
(
(0.745014 0.00248316 0)
(1.26173 0.00306975 0)
(0.902333 0.00552134 0)
(1.14639 -0.00928787 0)
(0.627093 0.017656 0)
(1.38166 0.02547 0)
(0.643355 0.000312984 0)
(1.24283 0.00953992 0)
(0.769598 -0.00538429 0)
(1.12914 0.00188859 0)
(0.823462 0.000914405 0)
(1.15577 0.00722435 0)
(0.842068 0.0187108 0)
(1.16086 0.0105768 0)
(0.796381 0.0178243 0)
(1.15361 0.0134925 0)
(0.800413 0.00712748 0)
(1.12601 0.0103681 0)
(0.827038 0.00974106 0)
(1.10906 0.0136922 0)
(0.750828 0.00232949 0)
(1.25445 0.00218421 0)
(0.905563 0.00625831 0)
(1.14237 -0.00652265 0)
(0.62882 0.0158776 0)
(1.37445 0.0255391 0)
(0.66887 0.00143136 0)
(1.2317 0.0086645 0)
(0.79605 -0.0043042 0)
(1.12279 0.00160984 0)
(0.842127 6.04843e-05 0)
(1.14641 0.0072524 0)
(0.862497 0.0182069 0)
(1.13806 0.0116816 0)
(0.833667 0.0177327 0)
(1.10716 0.0135025 0)
(0.870709 0.00809451 0)
(1.05043 0.00896991 0)
(0.929923 0.0114467 0)
(0.992032 0.0117758 0)
(0.764481 0.002115 0)
(1.23716 0.00136412 0)
(0.913967 0.00697786 0)
(1.13337 -0.0040181 0)
(0.637993 0.0129416 0)
(1.35604 0.0256876 0)
(0.7215 0.00233893 0)
(1.20472 0.00758223 0)
(0.844243 -0.00322351 0)
(1.10221 0.00116013 0)
(0.881096 -0.000617234 0)
(1.11956 0.00724197 0)
(0.909901 0.0180818 0)
(1.09664 0.0126426 0)
(0.898637 0.0180094 0)
(1.04839 0.0130521 0)
(0.942387 0.00916629 0)
(0.995834 0.00780531 0)
(0.975009 0.0123498 0)
(0.973091 0.0120332 0)
(0.787078 0.00196686 0)
(1.20842 0.000587326 0)
(0.929202 0.00757034 0)
(1.1189 -0.00157398 0)
(0.659956 0.0103624 0)
(1.32095 0.0252161 0)
(0.796022 0.00351823 0)
(1.16069 0.00660271 0)
(0.902928 -0.00216176 0)
(1.06948 0.000811015 0)
(0.926019 -0.000982312 0)
(1.08084 0.00691576 0)
(0.962338 0.0183925 0)
(1.05813 0.0130286 0)
(0.954903 0.018752 0)
(1.01392 0.012447 0)
(0.97938 0.00996595 0)
(0.983376 0.00758299 0)
(0.983247 0.0124309 0)
(0.981417 0.0129486 0)
(0.817971 0.00189875 0)
(1.16912 -0.000216606 0)
(0.950453 0.00808704 0)
(1.0997 0.00087677 0)
(0.698442 0.00828862 0)
(1.26676 0.0240383 0)
(0.876824 0.00498691 0)
(1.10845 0.00572765 0)
(0.954412 -0.00118368 0)
(1.03669 0.000650171 0)
(0.959526 -0.0012147 0)
(1.04378 0.00630051 0)
(0.997855 0.0186514 0)
(1.03489 0.0132613 0)
(0.987698 0.0195067 0)
(1.00301 0.012188 0)
(0.991922 0.0105611 0)
(0.985286 0.00777697 0)
(0.984428 0.0123237 0)
(0.985077 0.0136413 0)
(0.854348 0.0019162 0)
(1.12355 -0.00102425 0)
(0.973893 0.00848508 0)
(1.07827 0.00319273 0)
(0.751569 0.00662126 0)
(1.1982 0.0223039 0)
(0.944775 0.0065006 0)
(1.06245 0.00508685 0)
(0.987767 -0.000390244 0)
(1.01389 0.000694318 0)
(0.976327 -0.00133208 0)
(1.01642 0.00562515 0)
(1.01171 0.0186494 0)
(1.02364 0.0135632 0)
(1.00173 0.0200179 0)
(1.00169 0.0123833 0)
(0.994755 0.0109995 0)
(0.986513 0.0080768 0)
(0.98411 0.0123132 0)
(0.984141 0.0141288 0)
(0.891724 0.00202634 0)
(1.07877 -0.00179924 0)
(0.994219 0.00872486 0)
(1.05842 0.00521618 0)
(0.810986 0.00548131 0)
(1.12721 0.0202951 0)
(0.989205 0.0077679 0)
(1.03223 0.00480359 0)
(1.00372 0.000192335 0)
(1.00224 0.000909702 0)
(0.981533 -0.0013116 0)
(0.998815 0.00502696 0)
(1.0105 0.0184081 0)
(1.01706 0.0137979 0)
(1.00542 0.0203409 0)
(1.00232 0.012818 0)
(0.995359 0.0113458 0)
(0.98632 0.00854666 0)
(0.982809 0.012366 0)
(0.981603 0.0145135 0)
(0.92545 0.00221214 0)
(1.04186 -0.00249423 0)
(1.00719 0.0087861 0)
(1.04356 0.00687259 0)
(0.866313 0.0049366 0)
(1.0671 0.0183716 0)
(1.01119 0.00857746 0)
(1.01783 0.00481459 0)
(1.00913 0.000624909 0)
(0.997591 0.00124374 0)
(0.981914 -0.00113645 0)
(0.988041 0.00454129 0)
(1.0026 0.017984 0)
(1.01109 0.0138506 0)
(1.00444 0.0205248 0)
(1.00289 0.0132589 0)
(0.996281 0.0117061 0)
(0.986648 0.00919293 0)
(0.982019 0.0124271 0)
(0.979562 0.014896 0)
(0.952364 0.0024327 0)
(1.01681 -0.00305226 0)
(1.01154 0.00868358 0)
(1.03467 0.00812383 0)
(0.910657 0.0049063 0)
(1.02581 0.0167548 0)
(1.0184 0.00890543 0)
(1.01329 0.00496619 0)
(1.01036 0.000999273 0)
(0.996206 0.00164395 0)
(0.981575 -0.000840231 0)
(0.981746 0.00418642 0)
(0.993812 0.017465 0)
(1.00489 0.0137286 0)
(1.00161 0.0205261 0)
(1.00287 0.0136197 0)
(0.9977 0.0120684 0)
(0.988102 0.00993262 0)
(0.982782 0.0125338 0)
(0.979302 0.0153522 0)
(0.971549 0.00264173 0)
(1.00331 -0.00343901 0)
(1.00919 0.0084547 0)
(1.03001 0.00898651 0)
(0.942466 0.00522961 0)
(1.0038 0.0154915 0)
(1.01887 0.00886331 0)
(1.01247 0.00514448 0)
(1.01064 0.00137067 0)
(0.99644 0.00206392 0)
(0.982251 -0.000453859 0)
(0.978754 0.00398454 0)
(0.986937 0.0169455 0)
(0.999083 0.0134841 0)
(0.998221 0.020332 0)
(1.00212 0.0138859 0)
(0.999066 0.0123424 0)
(0.990247 0.0107079 0)
(0.985058 0.012718 0)
(0.981109 0.0158489 0)
(0.983955 0.00280566 0)
(0.998077 -0.00365128 0)
(1.00378 0.00815295 0)
(1.02674 0.00951119 0)
(0.963837 0.00573318 0)
(0.996245 0.0145234 0)
(1.01769 0.00863464 0)
(1.01204 0.00530988 0)
(1.01074 0.00173366 0)
(0.997651 0.00247066 0)
(0.984369 7.4466e-06 0)
(0.978549 0.00393654 0)
(0.982961 0.0164906 0)
(0.994616 0.0131812 0)
(0.995188 0.019985 0)
(1.00094 0.0140486 0)
(1.00013 0.0124747 0)
(0.992594 0.0114757 0)
(0.988293 0.0129387 0)
(0.98456 0.0162886 0)
(0.991396 0.00291154 0)
(0.997254 -0.00371611 0)
(0.998615 0.0078368 0)
(1.02289 0.00976754 0)
(0.977939 0.00627104 0)
(0.996933 0.0137651 0)
(1.01683 0.00837586 0)
(1.01117 0.00546277 0)
(1.01062 0.00206618 0)
(0.999252 0.00283924 0)
(0.987552 0.000504571 0)
(0.980625 0.00401687 0)
(0.982064 0.0161313 0)
(0.992303 0.0128823 0)
(0.993434 0.019531 0)
(1.0001 0.0141254 0)
(1.00116 0.0124649 0)
(0.995022 0.012178 0)
(0.991996 0.0131414 0)
(0.989015 0.0165981 0)
(0.995652 0.00296314 0)
(0.998072 -0.00367629 0)
(0.995391 0.00755495 0)
(1.0181 0.00982921 0)
(0.987371 0.00674413 0)
(1.00082 0.0131466 0)
(1.01642 0.00817368 0)
(1.01016 0.00561898 0)
(1.01031 0.00235518 0)
(1.00071 0.00314726 0)
(0.991038 0.000985171 0)
(0.984165 0.00418306 0)
(0.983894 0.0158581 0)
(0.992427 0.0126322 0)
(0.99356 0.0190084 0)
(1.00031 0.0141594 0)
(1.00257 0.0123389 0)
(0.99762 0.01277 0)
(0.995865 0.0133134 0)
(0.993866 0.0167461 0)
(0.998038 0.00297195 0)
(0.99913 -0.00357321 0)
(0.994234 0.00733383 0)
(1.01304 0.00976059 0)
(0.993753 0.0071063 0)
(1.00493 0.0126217 0)
(1.01608 0.0080536 0)
(1.00931 0.00579094 0)
(1.00997 0.00259847 0)
(1.0018 0.00338926 0)
(0.994178 0.00142085 0)
(0.988195 0.00438082 0)
(0.987577 0.0156326 0)
(0.994545 0.0124513 0)
(0.995463 0.0184531 0)
(1.00171 0.0141873 0)
(1.00449 0.0121454 0)
(1.00038 0.0132393 0)
(0.999652 0.0134698 0)
(0.998596 0.0167282 0)
(0.999381 0.00294982 0)
(0.999924 -0.00343702 0)
(0.994492 0.00717689 0)
(1.00856 0.00961133 0)
(0.998039 0.00735434 0)
(1.008 0.0121633 0)
(1.01551 0.00800409 0)
(1.00868 0.00597587 0)
(1.00979 0.00280616 0)
(1.0026 0.00357528 0)
(0.996703 0.00179717 0)
(0.991939 0.00456044 0)
(0.991972 0.0154134 0)
(0.997705 0.0123362 0)
(0.998402 0.017891 0)
(1.00384 0.0142294 0)
(1.00668 0.0119442 0)
(1.00309 0.0135932 0)
(1.00309 0.0136277 0)
(1.00279 0.0165646 0)
(1.00016 0.0029064 0)
(1.00032 -0.00328593 0)
(0.995468 0.00707247 0)
(1.00508 0.00941745 0)
(1.00089 0.00750691 0)
(1.00981 0.0117565 0)
(1.01464 0.00800197 0)
(1.0082 0.00616672 0)
(1.00986 0.0029852 0)
(1.0033 0.00372072 0)
(0.998641 0.00211404 0)
(0.995001 0.00469769 0)
(0.996095 0.0151709 0)
(1.00093 0.0122693 0)
(1.00147 0.0173411 0)
(1.00604 0.0142944 0)
(1.00874 0.0117744 0)
(1.00547 0.0138443 0)
(1.00593 0.0137973 0)
(1.00621 0.0162963 0)
(1.00063 0.00284957 0)
(1.00032 -0.0031297 0)
(0.996713 0.00700306 0)
(1.00265 0.00920159 0)
(1.00282 0.0075911 0)
(1.01061 0.011393 0)
(1.0135 0.0080226 0)
(1.00781 0.00635522 0)
(1.01019 0.00313389 0)
(1.004 0.00384186 0)
(1.0001 0.00238192 0)
(0.997292 0.00479357 0)
(0.999368 0.0148895 0)
(1.00356 0.0122373 0)
(1.004 0.0168144 0)
(1.00783 0.0143798 0)
(1.01036 0.0116498 0)
(1.00733 0.0140056 0)
(1.00805 0.0139754 0)
(1.00876 0.015964 0)
(1.00093 0.0027859 0)
(0.999989 -0.00297292 0)
(0.997979 0.00695004 0)
(1.00114 0.0089784 0)
(1.00414 0.00763083 0)
(1.01071 0.0110708 0)
(1.01223 0.0080472 0)
(1.0075 0.00653093 0)
(1.01073 0.00325048 0)
(1.00472 0.00395402 0)
(1.00115 0.00262062 0)
(0.998873 0.00485814 0)
(1.00161 0.0145706 0)
(1.00534 0.0122304 0)
(1.00572 0.0163144 0)
(1.009 0.0144695 0)
(1.01142 0.0115721 0)
(1.00862 0.0140939 0)
(1.00946 0.0141556 0)
(1.0105 0.0156005 0)
(1.00111 0.00272046 0)
(0.999458 -0.00281687 0)
(0.999115 0.00689588 0)
(1.00038 0.00875921 0)
(1.00499 0.00764312 0)
(1.01038 0.0107892 0)
(1.01102 0.00806423 0)
(1.00728 0.00668732 0)
(1.01133 0.0033378 0)
(1.00539 0.00406619 0)
(1.00182 0.00285303 0)
(0.999866 0.00490522 0)
(1.00288 0.0142267 0)
(1.0063 0.0122348 0)
(1.00663 0.0158418 0)
(1.00956 0.0145455 0)
(1.01196 0.0115365 0)
(1.00943 0.0141208 0)
(1.01025 0.0143346 0)
(1.01158 0.0152324 0)
(1.00121 0.00265619 0)
(0.998883 -0.00266006 0)
(1.00003 0.00682607 0)
(1.00018 0.00855185 0)
(1.00545 0.00764181 0)
(1.00985 0.010544 0)
(1.01 0.00806034 0)
(1.00713 0.0068252 0)
(1.01184 0.00339727 0)
(1.00597 0.00418573 0)
(1.00217 0.00309457 0)
(1.00045 0.00494684 0)
(1.00338 0.0138749 0)
(1.00662 0.0122378 0)
(1.00688 0.0153893 0)
(1.00964 0.0146032 0)
(1.01207 0.0115317 0)
(1.00989 0.0140879 0)
(1.01057 0.0145076 0)
(1.01217 0.0148784 0)
(1.00127 0.0025932 0)
(0.998382 -0.00249866 0)
(1.0007 0.00673118 0)
(1.00033 0.00836018 0)
(1.00561 0.00763742 0)
(1.00927 0.0103255 0)
(1.00921 0.0080287 0)
(1.00704 0.00694922 0)
(1.01217 0.0034354 0)
(1.00644 0.00431236 0)
(1.00229 0.00335627 0)
(1.00081 0.00499266 0)
(1.0034 0.0135251 0)
(1.00654 0.0122311 0)
(1.0067 0.0149474 0)
(1.00942 0.014642 0)
(1.0119 0.0115407 0)
(1.01013 0.0139966 0)
(1.01058 0.0146787 0)
(1.01243 0.014561 0)
(1.0013 0.00253126 0)
(0.998016 -0.00233118 0)
(1.00116 0.0066064 0)
(1.00065 0.00818693 0)
(1.00558 0.00763229 0)
(1.00879 0.0101261 0)
(1.00862 0.00796647 0)
(1.00701 0.00706951 0)
(1.01229 0.00345667 0)
(1.00682 0.00444499 0)
(1.00227 0.00364225 0)
(1.00112 0.00504364 0)
(1.00318 0.0131903 0)
(1.0063 0.0122113 0)
(1.00632 0.0145086 0)
(1.00907 0.0146578 0)
(1.01159 0.0115603 0)
(1.01029 0.0138486 0)
(1.01043 0.0148491 0)
(1.01251 0.0143058 0)
(1.00131 0.00246799 0)
(0.997801 -0.00215331 0)
(1.00144 0.00644876 0)
(1.001 0.00803665 0)
(1.00544 0.00762048 0)
(1.00849 0.00994469 0)
(1.00816 0.00787356 0)
(1.00703 0.00719207 0)
(1.01223 0.00347053 0)
(1.00712 0.00457378 0)
(1.00216 0.00395639 0)
(1.00147 0.00509506 0)
(1.00295 0.0128753 0)
(1.00605 0.0121848 0)
(1.00593 0.014071 0)
(1.00871 0.0146465 0)
(1.01123 0.0116034 0)
(1.01044 0.0136395 0)
(1.01025 0.0149978 0)
(1.0125 0.0141336 0)
(1.00128 0.00240116 0)
(0.997736 -0.00196152 0)
(1.00159 0.00625973 0)
(1.00135 0.00790648 0)
(1.00524 0.0076002 0)
(1.00838 0.00977705 0)
(1.00777 0.00775527 0)
(1.00708 0.00731756 0)
(1.01207 0.00348744 0)
(1.00736 0.00468481 0)
(1.00202 0.00430352 0)
(1.00188 0.00514617 0)
(1.00282 0.0125725 0)
(1.00589 0.0121629 0)
(1.00563 0.0136349 0)
(1.00841 0.0146024 0)
(1.01091 0.0116822 0)
(1.01061 0.0133679 0)
(1.01011 0.0150916 0)
(1.01244 0.0140626 0)
(1.00121 0.00232936 0)
(0.99781 -0.00175463 0)
(1.00162 0.00604076 0)
(1.00169 0.00779677 0)
(1.00498 0.00756599 0)
(1.00841 0.00962196 0)
(1.00742 0.00761672 0)
(1.00713 0.00744683 0)
(1.01185 0.00351165 0)
(1.00756 0.00477606 0)
(1.00186 0.00467511 0)
(1.00232 0.00520091 0)
(1.00283 0.0122757 0)
(1.00582 0.0121532 0)
(1.00545 0.0132037 0)
(1.00819 0.0145172 0)
(1.01063 0.011805 0)
(1.0108 0.0130462 0)
(1.01003 0.0150958 0)
(1.01233 0.014101 0)
(1.00109 0.00224988 0)
(0.998005 -0.00153037 0)
(1.00155 0.00579386 0)
(1.00202 0.00770689 0)
(1.00471 0.00751499 0)
(1.00851 0.00947759 0)
(1.0071 0.00746521 0)
(1.00715 0.00757504 0)
(1.01161 0.00355371 0)
(1.00771 0.00483912 0)
(1.00173 0.00506159 0)
(1.00274 0.00526711 0)
(1.00297 0.0119772 0)
(1.0058 0.0121596 0)
(1.0054 0.0127844 0)
(1.00803 0.0143759 0)
(1.01039 0.0119727 0)
(1.01098 0.0127105 0)
(1.01003 0.0149793 0)
(1.01217 0.0142332 0)
(1.00095 0.00216201 0)
(0.998297 -0.00128863 0)
(1.00143 0.00552216 0)
(1.00233 0.00763302 0)
(1.00444 0.00744646 0)
(1.00861 0.00934264 0)
(1.00683 0.00730432 0)
(1.00712 0.00769772 0)
(1.01139 0.00362016 0)
(1.00782 0.00487076 0)
(1.00162 0.00545508 0)
(1.00312 0.00534698 0)
(1.00324 0.0116645 0)
(1.00581 0.0121845 0)
(1.00544 0.0123885 0)
(1.00792 0.0141692 0)
(1.01019 0.0121761 0)
(1.01114 0.0124127 0)
(1.0101 0.0147267 0)
(1.01197 0.0143963 0)
(1.00078 0.00206359 0)
(0.99865 -0.00102788 0)
(1.00127 0.00522709 0)
(1.00259 0.00757648 0)
(1.0042 0.00735998 0)
(1.00866 0.0092115 0)
(1.0066 0.00714242 0)
(1.00704 0.00780297 0)
(1.01119 0.0037175 0)
(1.00791 0.00487395 0)
(1.00156 0.00584361 0)
(1.00345 0.00544526 0)
(1.00359 0.0113247 0)
(1.00583 0.0122242 0)
(1.00554 0.0120323 0)
(1.00785 0.013897 0)
(1.01001 0.0123939 0)
(1.01126 0.0121902 0)
(1.01023 0.0143518 0)
(1.01176 0.0145018 0)
(1.00062 0.00195445 0)
(0.999024 -0.00074999 0)
(1.00113 0.00491363 0)
(1.00278 0.007531 0)
(1.00401 0.00726307 0)
(1.00864 0.00908008 0)
(1.00642 0.00698476 0)
(1.00691 0.00788449 0)
(1.01101 0.00384809 0)
(1.00799 0.00485749 0)
(1.00153 0.0062232 0)
(1.00372 0.00557228 0)
(1.00401 0.0109573 0)
(1.00585 0.0122708 0)
(1.00566 0.0117321 0)
(1.00782 0.0135622 0)
(1.00984 0.0125969 0)
(1.01132 0.0120617 0)
(1.0104 0.013895 0)
(1.01158 0.0144741 0)
(1.00047 0.00183205 0)
(0.999378 -0.000452636 0)
(1.00104 0.00458628 0)
(1.0029 0.00748993 0)
(1.00389 0.00715785 0)
(1.00856 0.00895034 0)
(1.00628 0.00683576 0)
(1.00674 0.0079415 0)
(1.01083 0.004009 0)
(1.00807 0.00482211 0)
(1.00154 0.00658376 0)
(1.00394 0.00573315 0)
(1.00446 0.01057 0)
(1.00589 0.0123152 0)
(1.00577 0.0115017 0)
(1.00784 0.0131734 0)
(1.00969 0.0127553 0)
(1.01132 0.0120311 0)
(1.01057 0.0134255 0)
(1.01147 0.0142822 0)
(1.00035 0.00170002 0)
(0.99968 -0.000144681 0)
(1.00101 0.0042522 0)
(1.00295 0.00745172 0)
(1.00381 0.00704483 0)
(1.00843 0.00881361 0)
(1.00615 0.00671098 0)
(1.00656 0.00796358 0)
(1.01065 0.00419474 0)
(1.00817 0.00477214 0)
(1.00158 0.00690861 0)
(1.00412 0.00592997 0)
(1.00492 0.0101691 0)
(1.00594 0.0123467 0)
(1.00586 0.0113536 0)
(1.0079 0.0127463 0)
(1.00958 0.0128421 0)
(1.01129 0.0120797 0)
(1.01074 0.0130063 0)
(1.01143 0.013943 0)
(1.00026 0.00155671 0)
(0.999912 0.000175805 0)
(1.00104 0.0039136 0)
(1.00294 0.00741086 0)
(1.00376 0.0069342 0)
(1.00828 0.00865741 0)
(1.00604 0.006614 0)
(1.00638 0.00794891 0)
(1.01045 0.00439524 0)
(1.00828 0.00472085 0)
(1.00163 0.00718882 0)
(1.00427 0.00616199 0)
(1.00537 0.00975621 0)
(1.00601 0.0123492 0)
(1.0059 0.0112946 0)
(1.00798 0.0123063 0)
(1.00951 0.0128402 0)
(1.01122 0.0121815 0)
(1.01086 0.0126791 0)
(1.01145 0.013509 0)
(1.0002 0.00140286 0)
(1.00007 0.000507145 0)
(1.00112 0.00357408 0)
(1.00292 0.00736234 0)
(1.00372 0.00682983 0)
(1.00813 0.00847877 0)
(1.00594 0.00654099 0)
(1.0062 0.00791302 0)
(1.01024 0.00460571 0)
(1.0084 0.00467667 0)
(1.00169 0.00742109 0)
(1.00437 0.00642941 0)
(1.0058 0.00934291 0)
(1.00612 0.0123055 0)
(1.0059 0.0113173 0)
(1.00809 0.011879 0)
(1.00949 0.0127401 0)
(1.01113 0.0122996 0)
(1.01093 0.0124539 0)
(1.0115 0.0130653 0)
(1.00017 0.00124426 0)
(1.00016 0.000836337 0)
(1.00123 0.00324581 0)
(1.00289 0.00729733 0)
(1.00368 0.00673552 0)
(1.00798 0.00827651 0)
(1.00583 0.00649144 0)
(1.00602 0.00786723 0)
(1.01002 0.00481679 0)
(1.00852 0.00464858 0)
(1.00177 0.00760888 0)
(1.00443 0.00672833 0)
(1.00621 0.00894695 0)
(1.00626 0.0122001 0)
(1.00585 0.0114112 0)
(1.00818 0.0114922 0)
(1.00952 0.0125473 0)
(1.01104 0.0124048 0)
(1.01094 0.012306 0)
(1.01154 0.0126755 0)
(1.00016 0.00107852 0)
(1.00021 0.00116731 0)
(1.00135 0.00293283 0)
(1.00286 0.00720577 0)
(1.00362 0.00665987 0)
(1.00783 0.008044 0)
(1.00573 0.00646009 0)
(1.00584 0.00781161 0)
(1.00978 0.0050145 0)
(1.00864 0.00463255 0)
(1.00186 0.00774982 0)
(1.00445 0.0070484 0)
(1.0066 0.00858623 0)
(1.00644 0.0120193 0)
(1.00576 0.0115623 0)
(1.00825 0.011172 0)
(1.00961 0.0122642 0)
(1.01098 0.0124819 0)
(1.01091 0.0122158 0)
(1.01156 0.012346 0)
(1.00016 0.000910405 0)
(1.00021 0.00149005 0)
(1.00146 0.00264361 0)
(1.00285 0.00708175 0)
(1.00354 0.0066143 0)
(1.00768 0.00777452 0)
(1.00563 0.00643178 0)
(1.00566 0.00775752 0)
(1.00953 0.00519825 0)
(1.00876 0.00462046 0)
(1.00198 0.00784838 0)
(1.00443 0.0073841 0)
(1.00694 0.00827378 0)
(1.00667 0.0117515 0)
(1.00565 0.0117478 0)
(1.00828 0.0109483 0)
(1.00975 0.0118925 0)
(1.01094 0.0125023 0)
(1.01083 0.0121927 0)
(1.01154 0.0120616 0)
(1.00017 0.000742195 0)
(1.00018 0.00180026 0)
(1.00155 0.00238853 0)
(1.00285 0.00690572 0)
(1.00345 0.0066104 0)
(1.00753 0.00748195 0)
(1.00553 0.00639839 0)
(1.00548 0.00771727 0)
(1.00926 0.00536854 0)
(1.00887 0.00460961 0)
(1.00212 0.00791137 0)
(1.00437 0.00772857 0)
(1.00724 0.00801803 0)
(1.00696 0.0113934 0)
(1.00555 0.0119319 0)
(1.00824 0.01085 0)
(1.00992 0.0114625 0)
(1.01097 0.0124155 0)
(1.01072 0.0122465 0)
(1.01147 0.0118392 0)
(1.00018 0.000575335 0)
(1.00014 0.00209323 0)
(1.00163 0.00218032 0)
(1.00286 0.0066624 0)
(1.00334 0.00664658 0)
(1.00737 0.00718189 0)
(1.00544 0.00634954 0)
(1.0053 0.00769853 0)
(1.00898 0.00553392 0)
(1.00897 0.00460277 0)
(1.00229 0.00793647 0)
(1.00428 0.00807648 0)
(1.00748 0.00783581 0)
(1.0073 0.0109622 0)
(1.00548 0.0120684 0)
(1.00812 0.0108794 0)
(1.01009 0.0110383 0)
(1.01108 0.0121801 0)
(1.0106 0.0123238 0)
(1.01134 0.0117162 0)
(1.0002 0.000413561 0)
(1.00009 0.00235611 0)
(1.00167 0.00203682 0)
(1.00288 0.00633836 0)
(1.00322 0.00671521 0)
(1.00719 0.00688803 0)
(1.00536 0.00626785 0)
(1.00512 0.00770379 0)
(1.00868 0.00570209 0)
(1.00906 0.00460136 0)
(1.0025 0.00792068 0)
(1.00418 0.00841843 0)
(1.00765 0.00773756 0)
(1.00767 0.0104783 0)
(1.00545 0.0121153 0)
(1.00794 0.0110094 0)
(1.01022 0.0106938 0)
(1.01126 0.0118121 0)
(1.01052 0.0123366 0)
(1.01114 0.011711 0)
(1.00021 0.000259857 0)
(1.00002 0.00258636 0)
(1.00169 0.00195423 0)
(1.00291 0.00593579 0)
(1.00309 0.00680782 0)
(1.00699 0.00662225 0)
(1.00528 0.00613718 0)
(1.00494 0.00772 0)
(1.00835 0.00587922 0)
(1.00914 0.00459611 0)
(1.00275 0.00785525 0)
(1.00407 0.00874012 0)
(1.00775 0.00772761 0)
(1.00807 0.00996903 0)
(1.0055 0.0120512 0)
(1.00771 0.0112001 0)
(1.01027 0.0104656 0)
(1.0115 0.0113649 0)
(1.01051 0.0122171 0)
(1.0109 0.0117774 0)
(1.00022 0.000116832 0)
(0.999954 0.00277512 0)
(1.00167 0.00193452 0)
(1.00295 0.00547601 0)
(1.00296 0.00689344 0)
(1.00677 0.0064055 0)
(1.00522 0.00595665 0)
(1.00478 0.00772627 0)
(1.00801 0.00607412 0)
(1.00919 0.00459411 0)
(1.00304 0.00773751 0)
(1.00396 0.00903167 0)
(1.00777 0.00780951 0)
(1.00846 0.00947115 0)
(1.00564 0.0118696 0)
(1.00746 0.0114101 0)
(1.01024 0.0103592 0)
(1.01175 0.0109033 0)
(1.0106 0.011959 0)
(1.01067 0.0118167 0)
(1.00022 -1.1073e-05 0)
(0.999881 0.00291546 0)
(1.00162 0.00197604 0)
(1.00299 0.00498726 0)
(1.00283 0.00694348 0)
(1.00651 0.00625475 0)
(1.00516 0.00573293 0)
(1.00463 0.00770861 0)
(1.00764 0.00629176 0)
(1.00921 0.00461547 0)
(1.00336 0.00756638 0)
(1.00387 0.00926616 0)
(1.00771 0.00797009 0)
(1.00885 0.0090169 0)
(1.00586 0.0115702 0)
(1.00721 0.0115912 0)
(1.01009 0.0103617 0)
(1.01197 0.0104772 0)
(1.01078 0.0115991 0)
(1.01051 0.0117602 0)
(1.00023 -0.000124288 0)
(0.999808 0.00300553 0)
(1.00152 0.00206641 0)
(1.00303 0.00450079 0)
(1.00271 0.00693978 0)
(1.00622 0.00618146 0)
(1.00509 0.00548205 0)
(1.0045 0.00764651 0)
(1.00726 0.00653576 0)
(1.00919 0.00467814 0)
(1.00371 0.00735066 0)
(1.00382 0.00942394 0)
(1.00758 0.00818966 0)
(1.00918 0.00864227 0)
(1.00618 0.0111674 0)
(1.00701 0.0116965 0)
(1.00985 0.0104542 0)
(1.01212 0.0101183 0)
(1.01103 0.011171 0)
(1.01043 0.0115992 0)
(1.00023 -0.000221093 0)
(0.999739 0.00303648 0)
(1.0014 0.0022026 0)
(1.00307 0.00404115 0)
(1.00261 0.00685216 0)
(1.0059 0.00619086 0)
(1.00502 0.00523417 0)
(1.00441 0.00752531 0)
(1.00687 0.00679498 0)
(1.00912 0.00479671 0)
(1.00409 0.00710597 0)
(1.00382 0.00949534 0)
(1.00739 0.00843974 0)
(1.00945 0.00837203 0)
(1.00657 0.0106945 0)
(1.00688 0.0116861 0)
(1.00954 0.010608 0)
(1.01218 0.00986133 0)
(1.01131 0.0106996 0)
(1.01046 0.0113499 0)
(1.00023 -0.000296153 0)
(0.999678 0.00300881 0)
(1.00124 0.00236998 0)
(1.00309 0.00363217 0)
(1.00254 0.00666182 0)
(1.00555 0.00626928 0)
(1.00494 0.00501234 0)
(1.00435 0.00733938 0)
(1.00648 0.00704436 0)
(1.00898 0.00498085 0)
(1.00446 0.00685402 0)
(1.00387 0.00947345 0)
(1.00715 0.00869098 0)
(1.00963 0.00820973 0)
(1.007 0.0101989 0)
(1.00685 0.0115387 0)
(1.00918 0.0107604 0)
(1.01211 0.00972793 0)
(1.01159 0.0102237 0)
(1.01059 0.0110149 0)
(1.00023 -0.000350966 0)
(0.99963 0.00292619 0)
(1.00106 0.00255651 0)
(1.00309 0.00328906 0)
(1.00249 0.00637597 0)
(1.00519 0.00638674 0)
(1.00482 0.00484865 0)
(1.00432 0.00708018 0)
(1.00611 0.00724691 0)
(1.00879 0.00523481 0)
(1.00483 0.00662991 0)
(1.00398 0.00936016 0)
(1.0069 0.00891387 0)
(1.00972 0.00814258 0)
(1.00744 0.00972612 0)
(1.00693 0.0112712 0)
(1.00883 0.0108468 0)
(1.01193 0.00970049 0)
(1.01182 0.00980787 0)
(1.0108 0.0105965 0)
(1.00022 -0.000382092 0)
(0.999596 0.00278784 0)
(1.00086 0.00275364 0)
(1.00306 0.00302527 0)
(1.00248 0.00600459 0)
(1.00482 0.00650459 0)
(1.00467 0.00477669 0)
(1.00432 0.00677262 0)
(1.00579 0.00737126 0)
(1.00855 0.00554398 0)
(1.00516 0.0064633 0)
(1.00415 0.00916414 0)
(1.00664 0.00907115 0)
(1.0097 0.00814246 0)
(1.00786 0.00930239 0)
(1.00708 0.0109197 0)
(1.00851 0.0108415 0)
(1.01163 0.00972592 0)
(1.01195 0.00950298 0)
(1.01106 0.010128 0)
(1.00021 -0.000390402 0)
(0.99958 0.00260068 0)
(1.00065 0.00294508 0)
(1.00299 0.00285044 0)
(1.00249 0.00556141 0)
(1.00447 0.00658951 0)
(1.00447 0.00481383 0)
(1.00434 0.00646364 0)
(1.00551 0.00740123 0)
(1.00827 0.0058644 0)
(1.00544 0.00636988 0)
(1.00436 0.00891557 0)
(1.00641 0.00915271 0)
(1.00961 0.00818452 0)
(1.00822 0.00893701 0)
(1.00731 0.0105055 0)
(1.00826 0.010742 0)
(1.01128 0.00974497 0)
(1.01196 0.00930518 0)
(1.01133 0.00967606 0)
(1.00019 -0.000377204 0)
(0.999585 0.00237901 0)
(1.00044 0.00310771 0)
(1.00289 0.0027698 0)
(1.00253 0.00508234 0)
(1.00416 0.00660611 0)
(1.00424 0.00494879 0)
(1.00435 0.00619415 0)
(1.00528 0.00733311 0)
(1.00797 0.00614749 0)
(1.00566 0.00634447 0)
(1.00459 0.00864275 0)
(1.00622 0.00915865 0)
(1.00944 0.00824523 0)
(1.00852 0.00863927 0)
(1.00759 0.0100549 0)
(1.00808 0.0105605 0)
(1.01091 0.00973743 0)
(1.01186 0.00918009 0)
(1.01155 0.00930496 0)
(1.00018 -0.000346519 0)
(0.999609 0.00213845 0)
(1.00024 0.00323081 0)
(1.00275 0.00277757 0)
(1.00259 0.00460373 0)
(1.00389 0.00652922 0)
(1.00397 0.0051377 0)
(1.00433 0.0059958 0)
(1.0051 0.00719791 0)
(1.00766 0.00637731 0)
(1.00582 0.00637501 0)
(1.00484 0.00836829 0)
(1.00607 0.00908505 0)
(1.00923 0.00829121 0)
(1.00873 0.00841288 0)
(1.00789 0.00960881 0)
(1.00799 0.0103061 0)
(1.01053 0.00969696 0)
(1.01168 0.00908941 0)
(1.01167 0.00902816 0)
(1.00016 -0.000301144 0)
(0.999653 0.00189334 0)
(1.00007 0.00329887 0)
(1.00257 0.00286456 0)
(1.00265 0.0041592 0)
(1.00368 0.00635045 0)
(1.0037 0.00533919 0)
(1.00429 0.0058709 0)
(1.00497 0.00701435 0)
(1.00738 0.00653276 0)
(1.00593 0.0064367 0)
(1.00508 0.00812139 0)
(1.00596 0.00896357 0)
(1.009 0.00831536 0)
(1.00886 0.00824789 0)
(1.00819 0.00920103 0)
(1.00797 0.00999301 0)
(1.01019 0.00960603 0)
(1.01144 0.00900088 0)
(1.01171 0.00881312 0)
(1.00013 -0.000246699 0)
(0.999714 0.00166459 0)
(0.999934 0.00329272 0)
(1.00236 0.00299684 0)
(1.0027 0.00378151 0)
(1.00353 0.00607454 0)
(1.00344 0.00552772 0)
(1.00421 0.00584818 0)
(1.00486 0.00682956 0)
(1.00712 0.00660666 0)
(1.00599 0.00649109 0)
(1.0053 0.00788491 0)
(1.00589 0.00878823 0)
(1.00875 0.00829479 0)
(1.00893 0.0081019 0)
(1.00847 0.00882507 0)
(1.00803 0.00963678 0)
(1.0099 0.00945346 0)
(1.01116 0.00889555 0)
(1.01167 0.00861324 0)
(1.00011 -0.000192586 0)
(0.999783 0.00146069 0)
(0.999837 0.00322753 0)
(1.00213 0.00315203 0)
(1.00274 0.00348357 0)
(1.00344 0.00570093 0)
(1.00321 0.00564387 0)
(1.0041 0.00590021 0)
(1.00475 0.00668871 0)
(1.00688 0.00664359 0)
(1.00601 0.00656179 0)
(1.0055 0.00770405 0)
(1.00586 0.00860574 0)
(1.00851 0.0082656 0)
(1.00893 0.00799522 0)
(1.00872 0.00849391 0)
(1.00814 0.00926861 0)
(1.00966 0.00925218 0)
(1.01086 0.00877465 0)
(1.01157 0.00841254 0)
(1.00009 -0.000137062 0)
(0.999858 0.00127856 0)
(0.999783 0.00309114 0)
(1.00189 0.00331583 0)
(1.00274 0.00329777 0)
(1.00341 0.0053034 0)
(1.00304 0.00566878 0)
(1.00397 0.00595891 0)
(1.00465 0.00654863 0)
(1.00667 0.00660347 0)
(1.00602 0.00657878 0)
(1.00567 0.00753118 0)
(1.00585 0.00840248 0)
(1.00827 0.00821003 0)
(1.00886 0.00793277 0)
(1.0089 0.00823833 0)
(1.00827 0.00893129 0)
(1.00948 0.00904677 0)
(1.01055 0.00868664 0)
(1.01142 0.00826786 0)
(1.00007 -8.43565e-05 0)
(0.999938 0.00115055 0)
(0.99977 0.00291578 0)
(1.00166 0.00344421 0)
(1.00269 0.00319668 0)
(1.0034 0.00491079 0)
(1.00292 0.00560629 0)
(1.00383 0.00603805 0)
(1.00453 0.00647199 0)
(1.00648 0.00656036 0)
(1.00602 0.00656389 0)
(1.00582 0.00734374 0)
(1.00586 0.00814982 0)
(1.00807 0.00805749 0)
(1.00878 0.00780273 0)
(1.00904 0.00796603 0)
(1.00843 0.00853947 0)
(1.00938 0.0087303 0)
(1.01027 0.00851286 0)
(1.01124 0.0080702 0)
(1.00005 -5.33467e-05 0)
(1.00001 0.00107653 0)
(0.999785 0.00274164 0)
(1.00145 0.00355781 0)
(1.00261 0.00318659 0)
(1.00342 0.00456604 0)
(1.00287 0.00545322 0)
(1.00372 0.00606246 0)
(1.00441 0.00639497 0)
(1.00629 0.00649655 0)
(1.00598 0.00653901 0)
(1.00594 0.00718936 0)
(1.00588 0.00793457 0)
(1.00788 0.00792426 0)
(1.00865 0.00769219 0)
(1.00912 0.00775725 0)
(1.00857 0.00822664 0)
(1.00933 0.00842683 0)
(1.01001 0.00834256 0)
(1.01101 0.00792167 0)
(1.00004 -1.85086e-05 0)
(1.00008 0.000976891 0)
(0.999841 0.00245866 0)
(1.00126 0.0035602 0)
(1.00249 0.00320209 0)
(1.00341 0.00431912 0)
(1.00286 0.00527929 0)
(1.00361 0.00605672 0)
(1.00427 0.00634159 0)
(1.00611 0.00642761 0)
(1.00595 0.00649041 0)
(1.00604 0.00703379 0)
(1.00592 0.00770632 0)
(1.00772 0.00776121 0)
(1.00851 0.00755796 0)
(1.00916 0.00753542 0)
(1.00868 0.00793496 0)
(1.00931 0.00811991 0)
(1.0098 0.0081276 0)
(1.01076 0.00777401 0)
(1.00003 -2.29263e-06 0)
(1.00012 0.000948111 0)
(0.999915 0.00221378 0)
(1.00113 0.00353821 0)
(1.00238 0.00328161 0)
(1.00342 0.00417888 0)
(1.00291 0.00509041 0)
(1.00354 0.0059977 0)
(1.00414 0.00628875 0)
(1.00594 0.00635717 0)
(1.00591 0.0064116 0)
(1.00612 0.00687282 0)
(1.00595 0.0074712 0)
(1.00757 0.00756467 0)
(1.00836 0.00741284 0)
(1.00917 0.00731104 0)
(1.00879 0.00763041 0)
(1.00932 0.00780707 0)
(1.00964 0.00786579 0)
(1.01052 0.00759456 0)
(1.00001 9.15226e-06 0)
(1.00016 0.00095748 0)
(1 0.00204279 0)
(1.00103 0.00351565 0)
(1.00226 0.0033616 0)
(1.00339 0.00406559 0)
(1.00295 0.00485888 0)
(1.0035 0.00585441 0)
(1.004 0.00619405 0)
(1.00576 0.0062685 0)
(1.00585 0.00631555 0)
(1.00619 0.00671321 0)
(1.00599 0.00725977 0)
(1.00745 0.00736791 0)
(1.0082 0.0072701 0)
(1.00913 0.00712698 0)
(1.00887 0.00734684 0)
(1.00934 0.00750332 0)
(1.00952 0.00760472 0)
(1.0103 0.0073916 0)
(1.00001 2.5532e-05 0)
(1.00019 0.000956057 0)
(1.0001 0.0018728 0)
(1.00098 0.00341793 0)
(1.00213 0.00337439 0)
(1.00335 0.00395459 0)
(1.00302 0.00461531 0)
(1.00349 0.00564932 0)
(1.00389 0.0060561 0)
(1.00558 0.00614716 0)
(1.00578 0.00618298 0)
(1.00623 0.00651083 0)
(1.00602 0.00701451 0)
(1.00733 0.00713066 0)
(1.00804 0.00705713 0)
(1.00904 0.00690019 0)
(1.0089 0.00704548 0)
(1.00937 0.00715106 0)
(1.00943 0.0072995 0)
(1.0101 0.00713162 0)
(1.00001 2.27579e-05 0)
(1.0002 0.00102895 0)
(1.00019 0.00178721 0)
(1.00094 0.00329836 0)
(1.00201 0.00335846 0)
(1.00327 0.00386406 0)
(1.00306 0.00439242 0)
(1.0035 0.00540986 0)
(1.00379 0.00587611 0)
(1.00541 0.00600005 0)
(1.0057 0.00603697 0)
(1.00627 0.00630942 0)
(1.00606 0.00677843 0)
(1.00723 0.00692814 0)
(1.00788 0.00688927 0)
(1.00894 0.00671377 0)
(1.00891 0.00682623 0)
(1.0094 0.00686977 0)
(1.00938 0.00703752 0)
(1.00995 0.00692065 0)
(1 1.8865e-05 0)
(1.00021 0.00110025 0)
(1.00026 0.00174332 0)
(1.00092 0.00317759 0)
(1.0019 0.00332049 0)
(1.00317 0.00379287 0)
(1.0031 0.00422896 0)
(1.00353 0.00520503 0)
(1.00371 0.00572764 0)
(1.00523 0.00590537 0)
(1.00559 0.00593046 0)
(1.00627 0.00613424 0)
(1.00609 0.00653717 0)
(1.00714 0.00669033 0)
(1.0077 0.00669348 0)
(1.00881 0.00647669 0)
(1.00886 0.00654222 0)
(1.00939 0.00653843 0)
(1.00934 0.0066774 0)
(1.0098 0.00661011 0)
(1.00001 1.79796e-05 0)
(1.00022 0.00108281 0)
(1.00033 0.0016009 0)
(1.0009 0.00302536 0)
(1.00179 0.00328417 0)
(1.00306 0.00375801 0)
(1.00311 0.00409834 0)
(1.00355 0.00499363 0)
(1.00365 0.00552198 0)
(1.00507 0.00574995 0)
(1.00547 0.00577023 0)
(1.00624 0.00590788 0)
(1.0061 0.00626386 0)
(1.00705 0.00641636 0)
(1.00751 0.00648411 0)
(1.00862 0.00628032 0)
(1.00877 0.00629366 0)
(1.00934 0.00626403 0)
(1.00929 0.00636557 0)
(1.00969 0.00631515 0)
(1.00001 1.24698e-05 0)
(1.0002 0.00106741 0)
(1.00039 0.00149053 0)
(1.00093 0.00287893 0)
(1.00172 0.00322618 0)
(1.00295 0.00371514 0)
(1.00311 0.00398598 0)
(1.00359 0.00480092 0)
(1.00362 0.00533907 0)
(1.00492 0.00561463 0)
(1.00533 0.00564376 0)
(1.0062 0.00571404 0)
(1.00611 0.00601317 0)
(1.007 0.00614425 0)
(1.00738 0.00624163 0)
(1.00845 0.00608567 0)
(1.00866 0.0060655 0)
(1.00927 0.00599878 0)
(1.00922 0.0060823 0)
(1.0096 0.00600559 0)